V -t * -v 1.0a5 -a 0
A -t * -n 1 -p 0 -o 0x7fffffff -c 30 -a 1
A -t * -h 1 -m 1073741823 -s 0
c -t * -i 1 -n Blue
n -t * -a 0 -s 0 -S UP -v circle -c black -i black
n -t * -a 1 -s 1 -S UP -v circle -c black -i black
n -t * -a 2 -s 2 -S UP -v circle -c black -i black
n -t * -a 3 -s 3 -S UP -v circle -c black -i black
l -t * -s 0 -d 1 -S UP -r 10000000 -D 0.01 -c black -o right
l -t * -s 1 -d 2 -S UP -r 1000000 -D 0.01 -c black -o right
l -t * -s 2 -d 3 -S UP -r 10000000 -D 0.01 -c black -o right
q -t * -s 2 -d 1 -a 0.5
q -t * -s 1 -d 2 -a 0.5
+ -t 0 -s 0 -d 1 -p tcp -e 1000 -c 1 -i 0 -a 1 -x {0.0 3.0 0 ------- null}
- -t 0 -s 0 -d 1 -p tcp -e 1000 -c 1 -i 0 -a 1 -x {0.0 3.0 0 ------- null}
h -t 0 -s 0 -d 1 -p tcp -e 1000 -c 1 -i 0 -a 1 -x {0.0 3.0 -1 ------- null}
r -t 0.0108 -s 0 -d 1 -p tcp -e 1000 -c 1 -i 0 -a 1 -x {0.0 3.0 0 ------- null}
+ -t 0.0108 -s 1 -d 2 -p tcp -e 1000 -c 1 -i 0 -a 1 -x {0.0 3.0 0 ------- null}
- -t 0.0108 -s 1 -d 2 -p tcp -e 1000 -c 1 -i 0 -a 1 -x {0.0 3.0 0 ------- null}
h -t 0.0108 -s 1 -d 2 -p tcp -e 1000 -c 1 -i 0 -a 1 -x {0.0 3.0 -1 ------- null}
r -t 0.0288 -s 1 -d 2 -p tcp -e 1000 -c 1 -i 0 -a 1 -x {0.0 3.0 0 ------- null}
+ -t 0.0288 -s 2 -d 3 -p tcp -e 1000 -c 1 -i 0 -a 1 -x {0.0 3.0 0 ------- null}
- -t 0.0288 -s 2 -d 3 -p tcp -e 1000 -c 1 -i 0 -a 1 -x {0.0 3.0 0 ------- null}
h -t 0.0288 -s 2 -d 3 -p tcp -e 1000 -c 1 -i 0 -a 1 -x {0.0 3.0 -1 ------- null}
r -t 0.0396 -s 2 -d 3 -p tcp -e 1000 -c 1 -i 0 -a 1 -x {0.0 3.0 0 ------- null}
+ -t 0.0396 -s 3 -d 2 -p ack -e 40 -c 1 -i 1 -a 1 -x {3.0 0.0 0 ------- null}
- -t 0.0396 -s 3 -d 2 -p ack -e 40 -c 1 -i 1 -a 1 -x {3.0 0.0 0 ------- null}
h -t 0.0396 -s 3 -d 2 -p ack -e 40 -c 1 -i 1 -a 1 -x {3.0 0.0 -1 ------- null}
r -t 0.049632 -s 3 -d 2 -p ack -e 40 -c 1 -i 1 -a 1 -x {3.0 0.0 0 ------- null}
+ -t 0.049632 -s 2 -d 1 -p ack -e 40 -c 1 -i 1 -a 1 -x {3.0 0.0 0 ------- null}
- -t 0.049632 -s 2 -d 1 -p ack -e 40 -c 1 -i 1 -a 1 -x {3.0 0.0 0 ------- null}
h -t 0.049632 -s 2 -d 1 -p ack -e 40 -c 1 -i 1 -a 1 -x {3.0 0.0 -1 ------- null}
r -t 0.059952 -s 2 -d 1 -p ack -e 40 -c 1 -i 1 -a 1 -x {3.0 0.0 0 ------- null}
+ -t 0.059952 -s 1 -d 0 -p ack -e 40 -c 1 -i 1 -a 1 -x {3.0 0.0 0 ------- null}
- -t 0.059952 -s 1 -d 0 -p ack -e 40 -c 1 -i 1 -a 1 -x {3.0 0.0 0 ------- null}
h -t 0.059952 -s 1 -d 0 -p ack -e 40 -c 1 -i 1 -a 1 -x {3.0 0.0 -1 ------- null}
r -t 0.069984 -s 1 -d 0 -p ack -e 40 -c 1 -i 1 -a 1 -x {3.0 0.0 0 ------- null}
+ -t 0.069984 -s 0 -d 1 -p tcp -e 1000 -c 1 -i 2 -a 1 -x {0.0 3.0 1 ------- null}
- -t 0.069984 -s 0 -d 1 -p tcp -e 1000 -c 1 -i 2 -a 1 -x {0.0 3.0 1 ------- null}
h -t 0.069984 -s 0 -d 1 -p tcp -e 1000 -c 1 -i 2 -a 1 -x {0.0 3.0 -1 ------- null}
r -t 0.080784 -s 0 -d 1 -p tcp -e 1000 -c 1 -i 2 -a 1 -x {0.0 3.0 1 ------- null}
+ -t 0.080784 -s 1 -d 2 -p tcp -e 1000 -c 1 -i 2 -a 1 -x {0.0 3.0 1 ------- null}
- -t 0.080784 -s 1 -d 2 -p tcp -e 1000 -c 1 -i 2 -a 1 -x {0.0 3.0 1 ------- null}
h -t 0.080784 -s 1 -d 2 -p tcp -e 1000 -c 1 -i 2 -a 1 -x {0.0 3.0 -1 ------- null}
r -t 0.098784 -s 1 -d 2 -p tcp -e 1000 -c 1 -i 2 -a 1 -x {0.0 3.0 1 ------- null}
+ -t 0.098784 -s 2 -d 3 -p tcp -e 1000 -c 1 -i 2 -a 1 -x {0.0 3.0 1 ------- null}
- -t 0.098784 -s 2 -d 3 -p tcp -e 1000 -c 1 -i 2 -a 1 -x {0.0 3.0 1 ------- null}
h -t 0.098784 -s 2 -d 3 -p tcp -e 1000 -c 1 -i 2 -a 1 -x {0.0 3.0 -1 ------- null}
r -t 0.109584 -s 2 -d 3 -p tcp -e 1000 -c 1 -i 2 -a 1 -x {0.0 3.0 1 ------- null}
+ -t 0.109584 -s 3 -d 2 -p ack -e 40 -c 1 -i 3 -a 1 -x {3.0 0.0 1 ------- null}
- -t 0.109584 -s 3 -d 2 -p ack -e 40 -c 1 -i 3 -a 1 -x {3.0 0.0 1 ------- null}
h -t 0.109584 -s 3 -d 2 -p ack -e 40 -c 1 -i 3 -a 1 -x {3.0 0.0 -1 ------- null}
r -t 0.119616 -s 3 -d 2 -p ack -e 40 -c 1 -i 3 -a 1 -x {3.0 0.0 1 ------- null}
+ -t 0.119616 -s 2 -d 1 -p ack -e 40 -c 1 -i 3 -a 1 -x {3.0 0.0 1 ------- null}
- -t 0.119616 -s 2 -d 1 -p ack -e 40 -c 1 -i 3 -a 1 -x {3.0 0.0 1 ------- null}
h -t 0.119616 -s 2 -d 1 -p ack -e 40 -c 1 -i 3 -a 1 -x {3.0 0.0 -1 ------- null}
r -t 0.129936 -s 2 -d 1 -p ack -e 40 -c 1 -i 3 -a 1 -x {3.0 0.0 1 ------- null}
+ -t 0.129936 -s 1 -d 0 -p ack -e 40 -c 1 -i 3 -a 1 -x {3.0 0.0 1 ------- null}
- -t 0.129936 -s 1 -d 0 -p ack -e 40 -c 1 -i 3 -a 1 -x {3.0 0.0 1 ------- null}
h -t 0.129936 -s 1 -d 0 -p ack -e 40 -c 1 -i 3 -a 1 -x {3.0 0.0 -1 ------- null}
r -t 0.139968 -s 1 -d 0 -p ack -e 40 -c 1 -i 3 -a 1 -x {3.0 0.0 1 ------- null}
+ -t 0.139968 -s 0 -d 1 -p tcp -e 1000 -c 1 -i 4 -a 1 -x {0.0 3.0 2 ------- null}
- -t 0.139968 -s 0 -d 1 -p tcp -e 1000 -c 1 -i 4 -a 1 -x {0.0 3.0 2 ------- null}
h -t 0.139968 -s 0 -d 1 -p tcp -e 1000 -c 1 -i 4 -a 1 -x {0.0 3.0 -1 ------- null}
+ -t 0.139968 -s 0 -d 1 -p tcp -e 1000 -c 1 -i 5 -a 1 -x {0.0 3.0 3 ------- null}
+ -t 0.139968 -s 0 -d 1 -p tcp -e 1000 -c 1 -i 6 -a 1 -x {0.0 3.0 4 ------- null}
- -t 0.140768 -s 0 -d 1 -p tcp -e 1000 -c 1 -i 5 -a 1 -x {0.0 3.0 3 ------- null}
h -t 0.140768 -s 0 -d 1 -p tcp -e 1000 -c 1 -i 5 -a 1 -x {0.0 3.0 -1 ------- null}
- -t 0.141568 -s 0 -d 1 -p tcp -e 1000 -c 1 -i 6 -a 1 -x {0.0 3.0 4 ------- null}
h -t 0.141568 -s 0 -d 1 -p tcp -e 1000 -c 1 -i 6 -a 1 -x {0.0 3.0 -1 ------- null}
r -t 0.150768 -s 0 -d 1 -p tcp -e 1000 -c 1 -i 4 -a 1 -x {0.0 3.0 2 ------- null}
+ -t 0.150768 -s 1 -d 2 -p tcp -e 1000 -c 1 -i 4 -a 1 -x {0.0 3.0 2 ------- null}
- -t 0.150768 -s 1 -d 2 -p tcp -e 1000 -c 1 -i 4 -a 1 -x {0.0 3.0 2 ------- null}
h -t 0.150768 -s 1 -d 2 -p tcp -e 1000 -c 1 -i 4 -a 1 -x {0.0 3.0 -1 ------- null}
r -t 0.151568 -s 0 -d 1 -p tcp -e 1000 -c 1 -i 5 -a 1 -x {0.0 3.0 3 ------- null}
+ -t 0.151568 -s 1 -d 2 -p tcp -e 1000 -c 1 -i 5 -a 1 -x {0.0 3.0 3 ------- null}
r -t 0.152368 -s 0 -d 1 -p tcp -e 1000 -c 1 -i 6 -a 1 -x {0.0 3.0 4 ------- null}
+ -t 0.152368 -s 1 -d 2 -p tcp -e 1000 -c 1 -i 6 -a 1 -x {0.0 3.0 4 ------- null}
- -t 0.158768 -s 1 -d 2 -p tcp -e 1000 -c 1 -i 5 -a 1 -x {0.0 3.0 3 ------- null}
h -t 0.158768 -s 1 -d 2 -p tcp -e 1000 -c 1 -i 5 -a 1 -x {0.0 3.0 -1 ------- null}
- -t 0.166768 -s 1 -d 2 -p tcp -e 1000 -c 1 -i 6 -a 1 -x {0.0 3.0 4 ------- null}
h -t 0.166768 -s 1 -d 2 -p tcp -e 1000 -c 1 -i 6 -a 1 -x {0.0 3.0 -1 ------- null}
r -t 0.168768 -s 1 -d 2 -p tcp -e 1000 -c 1 -i 4 -a 1 -x {0.0 3.0 2 ------- null}
+ -t 0.168768 -s 2 -d 3 -p tcp -e 1000 -c 1 -i 4 -a 1 -x {0.0 3.0 2 ------- null}
- -t 0.168768 -s 2 -d 3 -p tcp -e 1000 -c 1 -i 4 -a 1 -x {0.0 3.0 2 ------- null}
h -t 0.168768 -s 2 -d 3 -p tcp -e 1000 -c 1 -i 4 -a 1 -x {0.0 3.0 -1 ------- null}
r -t 0.176768 -s 1 -d 2 -p tcp -e 1000 -c 1 -i 5 -a 1 -x {0.0 3.0 3 ------- null}
+ -t 0.176768 -s 2 -d 3 -p tcp -e 1000 -c 1 -i 5 -a 1 -x {0.0 3.0 3 ------- null}
- -t 0.176768 -s 2 -d 3 -p tcp -e 1000 -c 1 -i 5 -a 1 -x {0.0 3.0 3 ------- null}
h -t 0.176768 -s 2 -d 3 -p tcp -e 1000 -c 1 -i 5 -a 1 -x {0.0 3.0 -1 ------- null}
r -t 0.179568 -s 2 -d 3 -p tcp -e 1000 -c 1 -i 4 -a 1 -x {0.0 3.0 2 ------- null}
+ -t 0.179568 -s 3 -d 2 -p ack -e 40 -c 1 -i 7 -a 1 -x {3.0 0.0 2 ------- null}
- -t 0.179568 -s 3 -d 2 -p ack -e 40 -c 1 -i 7 -a 1 -x {3.0 0.0 2 ------- null}
h -t 0.179568 -s 3 -d 2 -p ack -e 40 -c 1 -i 7 -a 1 -x {3.0 0.0 -1 ------- null}
r -t 0.184768 -s 1 -d 2 -p tcp -e 1000 -c 1 -i 6 -a 1 -x {0.0 3.0 4 ------- null}
+ -t 0.184768 -s 2 -d 3 -p tcp -e 1000 -c 1 -i 6 -a 1 -x {0.0 3.0 4 ------- null}
- -t 0.184768 -s 2 -d 3 -p tcp -e 1000 -c 1 -i 6 -a 1 -x {0.0 3.0 4 ------- null}
h -t 0.184768 -s 2 -d 3 -p tcp -e 1000 -c 1 -i 6 -a 1 -x {0.0 3.0 -1 ------- null}
r -t 0.187568 -s 2 -d 3 -p tcp -e 1000 -c 1 -i 5 -a 1 -x {0.0 3.0 3 ------- null}
+ -t 0.187568 -s 3 -d 2 -p ack -e 40 -c 1 -i 8 -a 1 -x {3.0 0.0 3 ------- null}
- -t 0.187568 -s 3 -d 2 -p ack -e 40 -c 1 -i 8 -a 1 -x {3.0 0.0 3 ------- null}
h -t 0.187568 -s 3 -d 2 -p ack -e 40 -c 1 -i 8 -a 1 -x {3.0 0.0 -1 ------- null}
r -t 0.1896 -s 3 -d 2 -p ack -e 40 -c 1 -i 7 -a 1 -x {3.0 0.0 2 ------- null}
+ -t 0.1896 -s 2 -d 1 -p ack -e 40 -c 1 -i 7 -a 1 -x {3.0 0.0 2 ------- null}
- -t 0.1896 -s 2 -d 1 -p ack -e 40 -c 1 -i 7 -a 1 -x {3.0 0.0 2 ------- null}
h -t 0.1896 -s 2 -d 1 -p ack -e 40 -c 1 -i 7 -a 1 -x {3.0 0.0 -1 ------- null}
r -t 0.195568 -s 2 -d 3 -p tcp -e 1000 -c 1 -i 6 -a 1 -x {0.0 3.0 4 ------- null}
+ -t 0.195568 -s 3 -d 2 -p ack -e 40 -c 1 -i 9 -a 1 -x {3.0 0.0 4 ------- null}
- -t 0.195568 -s 3 -d 2 -p ack -e 40 -c 1 -i 9 -a 1 -x {3.0 0.0 4 ------- null}
h -t 0.195568 -s 3 -d 2 -p ack -e 40 -c 1 -i 9 -a 1 -x {3.0 0.0 -1 ------- null}
r -t 0.1976 -s 3 -d 2 -p ack -e 40 -c 1 -i 8 -a 1 -x {3.0 0.0 3 ------- null}
+ -t 0.1976 -s 2 -d 1 -p ack -e 40 -c 1 -i 8 -a 1 -x {3.0 0.0 3 ------- null}
- -t 0.1976 -s 2 -d 1 -p ack -e 40 -c 1 -i 8 -a 1 -x {3.0 0.0 3 ------- null}
h -t 0.1976 -s 2 -d 1 -p ack -e 40 -c 1 -i 8 -a 1 -x {3.0 0.0 -1 ------- null}
r -t 0.19992 -s 2 -d 1 -p ack -e 40 -c 1 -i 7 -a 1 -x {3.0 0.0 2 ------- null}
+ -t 0.19992 -s 1 -d 0 -p ack -e 40 -c 1 -i 7 -a 1 -x {3.0 0.0 2 ------- null}
- -t 0.19992 -s 1 -d 0 -p ack -e 40 -c 1 -i 7 -a 1 -x {3.0 0.0 2 ------- null}
h -t 0.19992 -s 1 -d 0 -p ack -e 40 -c 1 -i 7 -a 1 -x {3.0 0.0 -1 ------- null}
r -t 0.2056 -s 3 -d 2 -p ack -e 40 -c 1 -i 9 -a 1 -x {3.0 0.0 4 ------- null}
+ -t 0.2056 -s 2 -d 1 -p ack -e 40 -c 1 -i 9 -a 1 -x {3.0 0.0 4 ------- null}
- -t 0.2056 -s 2 -d 1 -p ack -e 40 -c 1 -i 9 -a 1 -x {3.0 0.0 4 ------- null}
h -t 0.2056 -s 2 -d 1 -p ack -e 40 -c 1 -i 9 -a 1 -x {3.0 0.0 -1 ------- null}
r -t 0.20792 -s 2 -d 1 -p ack -e 40 -c 1 -i 8 -a 1 -x {3.0 0.0 3 ------- null}
+ -t 0.20792 -s 1 -d 0 -p ack -e 40 -c 1 -i 8 -a 1 -x {3.0 0.0 3 ------- null}
- -t 0.20792 -s 1 -d 0 -p ack -e 40 -c 1 -i 8 -a 1 -x {3.0 0.0 3 ------- null}
h -t 0.20792 -s 1 -d 0 -p ack -e 40 -c 1 -i 8 -a 1 -x {3.0 0.0 -1 ------- null}
r -t 0.209952 -s 1 -d 0 -p ack -e 40 -c 1 -i 7 -a 1 -x {3.0 0.0 2 ------- null}
+ -t 0.209952 -s 0 -d 1 -p tcp -e 1000 -c 1 -i 10 -a 1 -x {0.0 3.0 5 ------- null}
- -t 0.209952 -s 0 -d 1 -p tcp -e 1000 -c 1 -i 10 -a 1 -x {0.0 3.0 5 ------- null}
h -t 0.209952 -s 0 -d 1 -p tcp -e 1000 -c 1 -i 10 -a 1 -x {0.0 3.0 -1 ------- null}
r -t 0.21592 -s 2 -d 1 -p ack -e 40 -c 1 -i 9 -a 1 -x {3.0 0.0 4 ------- null}
+ -t 0.21592 -s 1 -d 0 -p ack -e 40 -c 1 -i 9 -a 1 -x {3.0 0.0 4 ------- null}
- -t 0.21592 -s 1 -d 0 -p ack -e 40 -c 1 -i 9 -a 1 -x {3.0 0.0 4 ------- null}
h -t 0.21592 -s 1 -d 0 -p ack -e 40 -c 1 -i 9 -a 1 -x {3.0 0.0 -1 ------- null}
r -t 0.217952 -s 1 -d 0 -p ack -e 40 -c 1 -i 8 -a 1 -x {3.0 0.0 3 ------- null}
+ -t 0.217952 -s 0 -d 1 -p tcp -e 1000 -c 1 -i 11 -a 1 -x {0.0 3.0 6 ------- null}
- -t 0.217952 -s 0 -d 1 -p tcp -e 1000 -c 1 -i 11 -a 1 -x {0.0 3.0 6 ------- null}
h -t 0.217952 -s 0 -d 1 -p tcp -e 1000 -c 1 -i 11 -a 1 -x {0.0 3.0 -1 ------- null}
r -t 0.220752 -s 0 -d 1 -p tcp -e 1000 -c 1 -i 10 -a 1 -x {0.0 3.0 5 ------- null}
+ -t 0.220752 -s 1 -d 2 -p tcp -e 1000 -c 1 -i 10 -a 1 -x {0.0 3.0 5 ------- null}
- -t 0.220752 -s 1 -d 2 -p tcp -e 1000 -c 1 -i 10 -a 1 -x {0.0 3.0 5 ------- null}
h -t 0.220752 -s 1 -d 2 -p tcp -e 1000 -c 1 -i 10 -a 1 -x {0.0 3.0 -1 ------- null}
r -t 0.225952 -s 1 -d 0 -p ack -e 40 -c 1 -i 9 -a 1 -x {3.0 0.0 4 ------- null}
+ -t 0.225952 -s 0 -d 1 -p tcp -e 1000 -c 1 -i 12 -a 1 -x {0.0 3.0 7 ------- null}
- -t 0.225952 -s 0 -d 1 -p tcp -e 1000 -c 1 -i 12 -a 1 -x {0.0 3.0 7 ------- null}
h -t 0.225952 -s 0 -d 1 -p tcp -e 1000 -c 1 -i 12 -a 1 -x {0.0 3.0 -1 ------- null}
r -t 0.228752 -s 0 -d 1 -p tcp -e 1000 -c 1 -i 11 -a 1 -x {0.0 3.0 6 ------- null}
+ -t 0.228752 -s 1 -d 2 -p tcp -e 1000 -c 1 -i 11 -a 1 -x {0.0 3.0 6 ------- null}
- -t 0.228752 -s 1 -d 2 -p tcp -e 1000 -c 1 -i 11 -a 1 -x {0.0 3.0 6 ------- null}
h -t 0.228752 -s 1 -d 2 -p tcp -e 1000 -c 1 -i 11 -a 1 -x {0.0 3.0 -1 ------- null}
r -t 0.236752 -s 0 -d 1 -p tcp -e 1000 -c 1 -i 12 -a 1 -x {0.0 3.0 7 ------- null}
+ -t 0.236752 -s 1 -d 2 -p tcp -e 1000 -c 1 -i 12 -a 1 -x {0.0 3.0 7 ------- null}
- -t 0.236752 -s 1 -d 2 -p tcp -e 1000 -c 1 -i 12 -a 1 -x {0.0 3.0 7 ------- null}
h -t 0.236752 -s 1 -d 2 -p tcp -e 1000 -c 1 -i 12 -a 1 -x {0.0 3.0 -1 ------- null}
r -t 0.238752 -s 1 -d 2 -p tcp -e 1000 -c 1 -i 10 -a 1 -x {0.0 3.0 5 ------- null}
+ -t 0.238752 -s 2 -d 3 -p tcp -e 1000 -c 1 -i 10 -a 1 -x {0.0 3.0 5 ------- null}
- -t 0.238752 -s 2 -d 3 -p tcp -e 1000 -c 1 -i 10 -a 1 -x {0.0 3.0 5 ------- null}
h -t 0.238752 -s 2 -d 3 -p tcp -e 1000 -c 1 -i 10 -a 1 -x {0.0 3.0 -1 ------- null}
r -t 0.246752 -s 1 -d 2 -p tcp -e 1000 -c 1 -i 11 -a 1 -x {0.0 3.0 6 ------- null}
+ -t 0.246752 -s 2 -d 3 -p tcp -e 1000 -c 1 -i 11 -a 1 -x {0.0 3.0 6 ------- null}
- -t 0.246752 -s 2 -d 3 -p tcp -e 1000 -c 1 -i 11 -a 1 -x {0.0 3.0 6 ------- null}
h -t 0.246752 -s 2 -d 3 -p tcp -e 1000 -c 1 -i 11 -a 1 -x {0.0 3.0 -1 ------- null}
r -t 0.249552 -s 2 -d 3 -p tcp -e 1000 -c 1 -i 10 -a 1 -x {0.0 3.0 5 ------- null}
+ -t 0.249552 -s 3 -d 2 -p ack -e 40 -c 1 -i 13 -a 1 -x {3.0 0.0 5 ------- null}
- -t 0.249552 -s 3 -d 2 -p ack -e 40 -c 1 -i 13 -a 1 -x {3.0 0.0 5 ------- null}
h -t 0.249552 -s 3 -d 2 -p ack -e 40 -c 1 -i 13 -a 1 -x {3.0 0.0 -1 ------- null}
r -t 0.254752 -s 1 -d 2 -p tcp -e 1000 -c 1 -i 12 -a 1 -x {0.0 3.0 7 ------- null}
+ -t 0.254752 -s 2 -d 3 -p tcp -e 1000 -c 1 -i 12 -a 1 -x {0.0 3.0 7 ------- null}
- -t 0.254752 -s 2 -d 3 -p tcp -e 1000 -c 1 -i 12 -a 1 -x {0.0 3.0 7 ------- null}
h -t 0.254752 -s 2 -d 3 -p tcp -e 1000 -c 1 -i 12 -a 1 -x {0.0 3.0 -1 ------- null}
r -t 0.257552 -s 2 -d 3 -p tcp -e 1000 -c 1 -i 11 -a 1 -x {0.0 3.0 6 ------- null}
+ -t 0.257552 -s 3 -d 2 -p ack -e 40 -c 1 -i 14 -a 1 -x {3.0 0.0 6 ------- null}
- -t 0.257552 -s 3 -d 2 -p ack -e 40 -c 1 -i 14 -a 1 -x {3.0 0.0 6 ------- null}
h -t 0.257552 -s 3 -d 2 -p ack -e 40 -c 1 -i 14 -a 1 -x {3.0 0.0 -1 ------- null}
r -t 0.259584 -s 3 -d 2 -p ack -e 40 -c 1 -i 13 -a 1 -x {3.0 0.0 5 ------- null}
+ -t 0.259584 -s 2 -d 1 -p ack -e 40 -c 1 -i 13 -a 1 -x {3.0 0.0 5 ------- null}
- -t 0.259584 -s 2 -d 1 -p ack -e 40 -c 1 -i 13 -a 1 -x {3.0 0.0 5 ------- null}
h -t 0.259584 -s 2 -d 1 -p ack -e 40 -c 1 -i 13 -a 1 -x {3.0 0.0 -1 ------- null}
r -t 0.265552 -s 2 -d 3 -p tcp -e 1000 -c 1 -i 12 -a 1 -x {0.0 3.0 7 ------- null}
+ -t 0.265552 -s 3 -d 2 -p ack -e 40 -c 1 -i 15 -a 1 -x {3.0 0.0 7 ------- null}
- -t 0.265552 -s 3 -d 2 -p ack -e 40 -c 1 -i 15 -a 1 -x {3.0 0.0 7 ------- null}
h -t 0.265552 -s 3 -d 2 -p ack -e 40 -c 1 -i 15 -a 1 -x {3.0 0.0 -1 ------- null}
r -t 0.267584 -s 3 -d 2 -p ack -e 40 -c 1 -i 14 -a 1 -x {3.0 0.0 6 ------- null}
+ -t 0.267584 -s 2 -d 1 -p ack -e 40 -c 1 -i 14 -a 1 -x {3.0 0.0 6 ------- null}
- -t 0.267584 -s 2 -d 1 -p ack -e 40 -c 1 -i 14 -a 1 -x {3.0 0.0 6 ------- null}
h -t 0.267584 -s 2 -d 1 -p ack -e 40 -c 1 -i 14 -a 1 -x {3.0 0.0 -1 ------- null}
r -t 0.269904 -s 2 -d 1 -p ack -e 40 -c 1 -i 13 -a 1 -x {3.0 0.0 5 ------- null}
+ -t 0.269904 -s 1 -d 0 -p ack -e 40 -c 1 -i 13 -a 1 -x {3.0 0.0 5 ------- null}
- -t 0.269904 -s 1 -d 0 -p ack -e 40 -c 1 -i 13 -a 1 -x {3.0 0.0 5 ------- null}
h -t 0.269904 -s 1 -d 0 -p ack -e 40 -c 1 -i 13 -a 1 -x {3.0 0.0 -1 ------- null}
r -t 0.275584 -s 3 -d 2 -p ack -e 40 -c 1 -i 15 -a 1 -x {3.0 0.0 7 ------- null}
+ -t 0.275584 -s 2 -d 1 -p ack -e 40 -c 1 -i 15 -a 1 -x {3.0 0.0 7 ------- null}
- -t 0.275584 -s 2 -d 1 -p ack -e 40 -c 1 -i 15 -a 1 -x {3.0 0.0 7 ------- null}
h -t 0.275584 -s 2 -d 1 -p ack -e 40 -c 1 -i 15 -a 1 -x {3.0 0.0 -1 ------- null}
r -t 0.277904 -s 2 -d 1 -p ack -e 40 -c 1 -i 14 -a 1 -x {3.0 0.0 6 ------- null}
+ -t 0.277904 -s 1 -d 0 -p ack -e 40 -c 1 -i 14 -a 1 -x {3.0 0.0 6 ------- null}
- -t 0.277904 -s 1 -d 0 -p ack -e 40 -c 1 -i 14 -a 1 -x {3.0 0.0 6 ------- null}
h -t 0.277904 -s 1 -d 0 -p ack -e 40 -c 1 -i 14 -a 1 -x {3.0 0.0 -1 ------- null}
r -t 0.279936 -s 1 -d 0 -p ack -e 40 -c 1 -i 13 -a 1 -x {3.0 0.0 5 ------- null}
+ -t 0.279936 -s 0 -d 1 -p tcp -e 1000 -c 1 -i 16 -a 1 -x {0.0 3.0 8 ------- null}
- -t 0.279936 -s 0 -d 1 -p tcp -e 1000 -c 1 -i 16 -a 1 -x {0.0 3.0 8 ------- null}
h -t 0.279936 -s 0 -d 1 -p tcp -e 1000 -c 1 -i 16 -a 1 -x {0.0 3.0 -1 ------- null}
+ -t 0.279936 -s 0 -d 1 -p tcp -e 1000 -c 1 -i 17 -a 1 -x {0.0 3.0 9 ------- null}
- -t 0.280736 -s 0 -d 1 -p tcp -e 1000 -c 1 -i 17 -a 1 -x {0.0 3.0 9 ------- null}
h -t 0.280736 -s 0 -d 1 -p tcp -e 1000 -c 1 -i 17 -a 1 -x {0.0 3.0 -1 ------- null}
r -t 0.285904 -s 2 -d 1 -p ack -e 40 -c 1 -i 15 -a 1 -x {3.0 0.0 7 ------- null}
+ -t 0.285904 -s 1 -d 0 -p ack -e 40 -c 1 -i 15 -a 1 -x {3.0 0.0 7 ------- null}
- -t 0.285904 -s 1 -d 0 -p ack -e 40 -c 1 -i 15 -a 1 -x {3.0 0.0 7 ------- null}
h -t 0.285904 -s 1 -d 0 -p ack -e 40 -c 1 -i 15 -a 1 -x {3.0 0.0 -1 ------- null}
r -t 0.287936 -s 1 -d 0 -p ack -e 40 -c 1 -i 14 -a 1 -x {3.0 0.0 6 ------- null}
+ -t 0.287936 -s 0 -d 1 -p tcp -e 1000 -c 1 -i 18 -a 1 -x {0.0 3.0 10 ------- null}
- -t 0.287936 -s 0 -d 1 -p tcp -e 1000 -c 1 -i 18 -a 1 -x {0.0 3.0 10 ------- null}
h -t 0.287936 -s 0 -d 1 -p tcp -e 1000 -c 1 -i 18 -a 1 -x {0.0 3.0 -1 ------- null}
+ -t 0.287936 -s 0 -d 1 -p tcp -e 1000 -c 1 -i 19 -a 1 -x {0.0 3.0 11 ------- null}
- -t 0.288736 -s 0 -d 1 -p tcp -e 1000 -c 1 -i 19 -a 1 -x {0.0 3.0 11 ------- null}
h -t 0.288736 -s 0 -d 1 -p tcp -e 1000 -c 1 -i 19 -a 1 -x {0.0 3.0 -1 ------- null}
r -t 0.290736 -s 0 -d 1 -p tcp -e 1000 -c 1 -i 16 -a 1 -x {0.0 3.0 8 ------- null}
+ -t 0.290736 -s 1 -d 2 -p tcp -e 1000 -c 1 -i 16 -a 1 -x {0.0 3.0 8 ------- null}
- -t 0.290736 -s 1 -d 2 -p tcp -e 1000 -c 1 -i 16 -a 1 -x {0.0 3.0 8 ------- null}
h -t 0.290736 -s 1 -d 2 -p tcp -e 1000 -c 1 -i 16 -a 1 -x {0.0 3.0 -1 ------- null}
r -t 0.291536 -s 0 -d 1 -p tcp -e 1000 -c 1 -i 17 -a 1 -x {0.0 3.0 9 ------- null}
+ -t 0.291536 -s 1 -d 2 -p tcp -e 1000 -c 1 -i 17 -a 1 -x {0.0 3.0 9 ------- null}
r -t 0.295936 -s 1 -d 0 -p ack -e 40 -c 1 -i 15 -a 1 -x {3.0 0.0 7 ------- null}
+ -t 0.295936 -s 0 -d 1 -p tcp -e 1000 -c 1 -i 20 -a 1 -x {0.0 3.0 12 ------- null}
- -t 0.295936 -s 0 -d 1 -p tcp -e 1000 -c 1 -i 20 -a 1 -x {0.0 3.0 12 ------- null}
h -t 0.295936 -s 0 -d 1 -p tcp -e 1000 -c 1 -i 20 -a 1 -x {0.0 3.0 -1 ------- null}
+ -t 0.295936 -s 0 -d 1 -p tcp -e 1000 -c 1 -i 21 -a 1 -x {0.0 3.0 13 ------- null}
- -t 0.296736 -s 0 -d 1 -p tcp -e 1000 -c 1 -i 21 -a 1 -x {0.0 3.0 13 ------- null}
h -t 0.296736 -s 0 -d 1 -p tcp -e 1000 -c 1 -i 21 -a 1 -x {0.0 3.0 -1 ------- null}
r -t 0.298736 -s 0 -d 1 -p tcp -e 1000 -c 1 -i 18 -a 1 -x {0.0 3.0 10 ------- null}
+ -t 0.298736 -s 1 -d 2 -p tcp -e 1000 -c 1 -i 18 -a 1 -x {0.0 3.0 10 ------- null}
- -t 0.298736 -s 1 -d 2 -p tcp -e 1000 -c 1 -i 17 -a 1 -x {0.0 3.0 9 ------- null}
h -t 0.298736 -s 1 -d 2 -p tcp -e 1000 -c 1 -i 17 -a 1 -x {0.0 3.0 -1 ------- null}
r -t 0.299536 -s 0 -d 1 -p tcp -e 1000 -c 1 -i 19 -a 1 -x {0.0 3.0 11 ------- null}
+ -t 0.299536 -s 1 -d 2 -p tcp -e 1000 -c 1 -i 19 -a 1 -x {0.0 3.0 11 ------- null}
r -t 0.306736 -s 0 -d 1 -p tcp -e 1000 -c 1 -i 20 -a 1 -x {0.0 3.0 12 ------- null}
+ -t 0.306736 -s 1 -d 2 -p tcp -e 1000 -c 1 -i 20 -a 1 -x {0.0 3.0 12 ------- null}
- -t 0.306736 -s 1 -d 2 -p tcp -e 1000 -c 1 -i 18 -a 1 -x {0.0 3.0 10 ------- null}
h -t 0.306736 -s 1 -d 2 -p tcp -e 1000 -c 1 -i 18 -a 1 -x {0.0 3.0 -1 ------- null}
r -t 0.307536 -s 0 -d 1 -p tcp -e 1000 -c 1 -i 21 -a 1 -x {0.0 3.0 13 ------- null}
+ -t 0.307536 -s 1 -d 2 -p tcp -e 1000 -c 1 -i 21 -a 1 -x {0.0 3.0 13 ------- null}
r -t 0.308736 -s 1 -d 2 -p tcp -e 1000 -c 1 -i 16 -a 1 -x {0.0 3.0 8 ------- null}
+ -t 0.308736 -s 2 -d 3 -p tcp -e 1000 -c 1 -i 16 -a 1 -x {0.0 3.0 8 ------- null}
- -t 0.308736 -s 2 -d 3 -p tcp -e 1000 -c 1 -i 16 -a 1 -x {0.0 3.0 8 ------- null}
h -t 0.308736 -s 2 -d 3 -p tcp -e 1000 -c 1 -i 16 -a 1 -x {0.0 3.0 -1 ------- null}
- -t 0.314736 -s 1 -d 2 -p tcp -e 1000 -c 1 -i 19 -a 1 -x {0.0 3.0 11 ------- null}
h -t 0.314736 -s 1 -d 2 -p tcp -e 1000 -c 1 -i 19 -a 1 -x {0.0 3.0 -1 ------- null}
r -t 0.316736 -s 1 -d 2 -p tcp -e 1000 -c 1 -i 17 -a 1 -x {0.0 3.0 9 ------- null}
+ -t 0.316736 -s 2 -d 3 -p tcp -e 1000 -c 1 -i 17 -a 1 -x {0.0 3.0 9 ------- null}
- -t 0.316736 -s 2 -d 3 -p tcp -e 1000 -c 1 -i 17 -a 1 -x {0.0 3.0 9 ------- null}
h -t 0.316736 -s 2 -d 3 -p tcp -e 1000 -c 1 -i 17 -a 1 -x {0.0 3.0 -1 ------- null}
r -t 0.319536 -s 2 -d 3 -p tcp -e 1000 -c 1 -i 16 -a 1 -x {0.0 3.0 8 ------- null}
+ -t 0.319536 -s 3 -d 2 -p ack -e 40 -c 1 -i 22 -a 1 -x {3.0 0.0 8 ------- null}
- -t 0.319536 -s 3 -d 2 -p ack -e 40 -c 1 -i 22 -a 1 -x {3.0 0.0 8 ------- null}
h -t 0.319536 -s 3 -d 2 -p ack -e 40 -c 1 -i 22 -a 1 -x {3.0 0.0 -1 ------- null}
- -t 0.322736 -s 1 -d 2 -p tcp -e 1000 -c 1 -i 20 -a 1 -x {0.0 3.0 12 ------- null}
h -t 0.322736 -s 1 -d 2 -p tcp -e 1000 -c 1 -i 20 -a 1 -x {0.0 3.0 -1 ------- null}
r -t 0.324736 -s 1 -d 2 -p tcp -e 1000 -c 1 -i 18 -a 1 -x {0.0 3.0 10 ------- null}
+ -t 0.324736 -s 2 -d 3 -p tcp -e 1000 -c 1 -i 18 -a 1 -x {0.0 3.0 10 ------- null}
- -t 0.324736 -s 2 -d 3 -p tcp -e 1000 -c 1 -i 18 -a 1 -x {0.0 3.0 10 ------- null}
h -t 0.324736 -s 2 -d 3 -p tcp -e 1000 -c 1 -i 18 -a 1 -x {0.0 3.0 -1 ------- null}
r -t 0.327536 -s 2 -d 3 -p tcp -e 1000 -c 1 -i 17 -a 1 -x {0.0 3.0 9 ------- null}
+ -t 0.327536 -s 3 -d 2 -p ack -e 40 -c 1 -i 23 -a 1 -x {3.0 0.0 9 ------- null}
- -t 0.327536 -s 3 -d 2 -p ack -e 40 -c 1 -i 23 -a 1 -x {3.0 0.0 9 ------- null}
h -t 0.327536 -s 3 -d 2 -p ack -e 40 -c 1 -i 23 -a 1 -x {3.0 0.0 -1 ------- null}
r -t 0.329568 -s 3 -d 2 -p ack -e 40 -c 1 -i 22 -a 1 -x {3.0 0.0 8 ------- null}
+ -t 0.329568 -s 2 -d 1 -p ack -e 40 -c 1 -i 22 -a 1 -x {3.0 0.0 8 ------- null}
- -t 0.329568 -s 2 -d 1 -p ack -e 40 -c 1 -i 22 -a 1 -x {3.0 0.0 8 ------- null}
h -t 0.329568 -s 2 -d 1 -p ack -e 40 -c 1 -i 22 -a 1 -x {3.0 0.0 -1 ------- null}
- -t 0.330736 -s 1 -d 2 -p tcp -e 1000 -c 1 -i 21 -a 1 -x {0.0 3.0 13 ------- null}
h -t 0.330736 -s 1 -d 2 -p tcp -e 1000 -c 1 -i 21 -a 1 -x {0.0 3.0 -1 ------- null}
r -t 0.332736 -s 1 -d 2 -p tcp -e 1000 -c 1 -i 19 -a 1 -x {0.0 3.0 11 ------- null}
+ -t 0.332736 -s 2 -d 3 -p tcp -e 1000 -c 1 -i 19 -a 1 -x {0.0 3.0 11 ------- null}
- -t 0.332736 -s 2 -d 3 -p tcp -e 1000 -c 1 -i 19 -a 1 -x {0.0 3.0 11 ------- null}
h -t 0.332736 -s 2 -d 3 -p tcp -e 1000 -c 1 -i 19 -a 1 -x {0.0 3.0 -1 ------- null}
r -t 0.335536 -s 2 -d 3 -p tcp -e 1000 -c 1 -i 18 -a 1 -x {0.0 3.0 10 ------- null}
+ -t 0.335536 -s 3 -d 2 -p ack -e 40 -c 1 -i 24 -a 1 -x {3.0 0.0 10 ------- null}
- -t 0.335536 -s 3 -d 2 -p ack -e 40 -c 1 -i 24 -a 1 -x {3.0 0.0 10 ------- null}
h -t 0.335536 -s 3 -d 2 -p ack -e 40 -c 1 -i 24 -a 1 -x {3.0 0.0 -1 ------- null}
r -t 0.337568 -s 3 -d 2 -p ack -e 40 -c 1 -i 23 -a 1 -x {3.0 0.0 9 ------- null}
+ -t 0.337568 -s 2 -d 1 -p ack -e 40 -c 1 -i 23 -a 1 -x {3.0 0.0 9 ------- null}
- -t 0.337568 -s 2 -d 1 -p ack -e 40 -c 1 -i 23 -a 1 -x {3.0 0.0 9 ------- null}
h -t 0.337568 -s 2 -d 1 -p ack -e 40 -c 1 -i 23 -a 1 -x {3.0 0.0 -1 ------- null}
r -t 0.339888 -s 2 -d 1 -p ack -e 40 -c 1 -i 22 -a 1 -x {3.0 0.0 8 ------- null}
+ -t 0.339888 -s 1 -d 0 -p ack -e 40 -c 1 -i 22 -a 1 -x {3.0 0.0 8 ------- null}
- -t 0.339888 -s 1 -d 0 -p ack -e 40 -c 1 -i 22 -a 1 -x {3.0 0.0 8 ------- null}
h -t 0.339888 -s 1 -d 0 -p ack -e 40 -c 1 -i 22 -a 1 -x {3.0 0.0 -1 ------- null}
r -t 0.340736 -s 1 -d 2 -p tcp -e 1000 -c 1 -i 20 -a 1 -x {0.0 3.0 12 ------- null}
+ -t 0.340736 -s 2 -d 3 -p tcp -e 1000 -c 1 -i 20 -a 1 -x {0.0 3.0 12 ------- null}
- -t 0.340736 -s 2 -d 3 -p tcp -e 1000 -c 1 -i 20 -a 1 -x {0.0 3.0 12 ------- null}
h -t 0.340736 -s 2 -d 3 -p tcp -e 1000 -c 1 -i 20 -a 1 -x {0.0 3.0 -1 ------- null}
r -t 0.343536 -s 2 -d 3 -p tcp -e 1000 -c 1 -i 19 -a 1 -x {0.0 3.0 11 ------- null}
+ -t 0.343536 -s 3 -d 2 -p ack -e 40 -c 1 -i 25 -a 1 -x {3.0 0.0 11 ------- null}
- -t 0.343536 -s 3 -d 2 -p ack -e 40 -c 1 -i 25 -a 1 -x {3.0 0.0 11 ------- null}
h -t 0.343536 -s 3 -d 2 -p ack -e 40 -c 1 -i 25 -a 1 -x {3.0 0.0 -1 ------- null}
r -t 0.345568 -s 3 -d 2 -p ack -e 40 -c 1 -i 24 -a 1 -x {3.0 0.0 10 ------- null}
+ -t 0.345568 -s 2 -d 1 -p ack -e 40 -c 1 -i 24 -a 1 -x {3.0 0.0 10 ------- null}
- -t 0.345568 -s 2 -d 1 -p ack -e 40 -c 1 -i 24 -a 1 -x {3.0 0.0 10 ------- null}
h -t 0.345568 -s 2 -d 1 -p ack -e 40 -c 1 -i 24 -a 1 -x {3.0 0.0 -1 ------- null}
r -t 0.347888 -s 2 -d 1 -p ack -e 40 -c 1 -i 23 -a 1 -x {3.0 0.0 9 ------- null}
+ -t 0.347888 -s 1 -d 0 -p ack -e 40 -c 1 -i 23 -a 1 -x {3.0 0.0 9 ------- null}
- -t 0.347888 -s 1 -d 0 -p ack -e 40 -c 1 -i 23 -a 1 -x {3.0 0.0 9 ------- null}
h -t 0.347888 -s 1 -d 0 -p ack -e 40 -c 1 -i 23 -a 1 -x {3.0 0.0 -1 ------- null}
r -t 0.348736 -s 1 -d 2 -p tcp -e 1000 -c 1 -i 21 -a 1 -x {0.0 3.0 13 ------- null}
+ -t 0.348736 -s 2 -d 3 -p tcp -e 1000 -c 1 -i 21 -a 1 -x {0.0 3.0 13 ------- null}
- -t 0.348736 -s 2 -d 3 -p tcp -e 1000 -c 1 -i 21 -a 1 -x {0.0 3.0 13 ------- null}
h -t 0.348736 -s 2 -d 3 -p tcp -e 1000 -c 1 -i 21 -a 1 -x {0.0 3.0 -1 ------- null}
r -t 0.34992 -s 1 -d 0 -p ack -e 40 -c 1 -i 22 -a 1 -x {3.0 0.0 8 ------- null}
+ -t 0.34992 -s 0 -d 1 -p tcp -e 1000 -c 1 -i 26 -a 1 -x {0.0 3.0 14 ------- null}
- -t 0.34992 -s 0 -d 1 -p tcp -e 1000 -c 1 -i 26 -a 1 -x {0.0 3.0 14 ------- null}
h -t 0.34992 -s 0 -d 1 -p tcp -e 1000 -c 1 -i 26 -a 1 -x {0.0 3.0 -1 ------- null}
r -t 0.351536 -s 2 -d 3 -p tcp -e 1000 -c 1 -i 20 -a 1 -x {0.0 3.0 12 ------- null}
+ -t 0.351536 -s 3 -d 2 -p ack -e 40 -c 1 -i 27 -a 1 -x {3.0 0.0 12 ------- null}
- -t 0.351536 -s 3 -d 2 -p ack -e 40 -c 1 -i 27 -a 1 -x {3.0 0.0 12 ------- null}
h -t 0.351536 -s 3 -d 2 -p ack -e 40 -c 1 -i 27 -a 1 -x {3.0 0.0 -1 ------- null}
r -t 0.353568 -s 3 -d 2 -p ack -e 40 -c 1 -i 25 -a 1 -x {3.0 0.0 11 ------- null}
+ -t 0.353568 -s 2 -d 1 -p ack -e 40 -c 1 -i 25 -a 1 -x {3.0 0.0 11 ------- null}
- -t 0.353568 -s 2 -d 1 -p ack -e 40 -c 1 -i 25 -a 1 -x {3.0 0.0 11 ------- null}
h -t 0.353568 -s 2 -d 1 -p ack -e 40 -c 1 -i 25 -a 1 -x {3.0 0.0 -1 ------- null}
r -t 0.355888 -s 2 -d 1 -p ack -e 40 -c 1 -i 24 -a 1 -x {3.0 0.0 10 ------- null}
+ -t 0.355888 -s 1 -d 0 -p ack -e 40 -c 1 -i 24 -a 1 -x {3.0 0.0 10 ------- null}
- -t 0.355888 -s 1 -d 0 -p ack -e 40 -c 1 -i 24 -a 1 -x {3.0 0.0 10 ------- null}
h -t 0.355888 -s 1 -d 0 -p ack -e 40 -c 1 -i 24 -a 1 -x {3.0 0.0 -1 ------- null}
r -t 0.35792 -s 1 -d 0 -p ack -e 40 -c 1 -i 23 -a 1 -x {3.0 0.0 9 ------- null}
+ -t 0.35792 -s 0 -d 1 -p tcp -e 1000 -c 1 -i 28 -a 1 -x {0.0 3.0 15 ------- null}
- -t 0.35792 -s 0 -d 1 -p tcp -e 1000 -c 1 -i 28 -a 1 -x {0.0 3.0 15 ------- null}
h -t 0.35792 -s 0 -d 1 -p tcp -e 1000 -c 1 -i 28 -a 1 -x {0.0 3.0 -1 ------- null}
r -t 0.359536 -s 2 -d 3 -p tcp -e 1000 -c 1 -i 21 -a 1 -x {0.0 3.0 13 ------- null}
+ -t 0.359536 -s 3 -d 2 -p ack -e 40 -c 1 -i 29 -a 1 -x {3.0 0.0 13 ------- null}
- -t 0.359536 -s 3 -d 2 -p ack -e 40 -c 1 -i 29 -a 1 -x {3.0 0.0 13 ------- null}
h -t 0.359536 -s 3 -d 2 -p ack -e 40 -c 1 -i 29 -a 1 -x {3.0 0.0 -1 ------- null}
r -t 0.36072 -s 0 -d 1 -p tcp -e 1000 -c 1 -i 26 -a 1 -x {0.0 3.0 14 ------- null}
+ -t 0.36072 -s 1 -d 2 -p tcp -e 1000 -c 1 -i 26 -a 1 -x {0.0 3.0 14 ------- null}
- -t 0.36072 -s 1 -d 2 -p tcp -e 1000 -c 1 -i 26 -a 1 -x {0.0 3.0 14 ------- null}
h -t 0.36072 -s 1 -d 2 -p tcp -e 1000 -c 1 -i 26 -a 1 -x {0.0 3.0 -1 ------- null}
r -t 0.361568 -s 3 -d 2 -p ack -e 40 -c 1 -i 27 -a 1 -x {3.0 0.0 12 ------- null}
+ -t 0.361568 -s 2 -d 1 -p ack -e 40 -c 1 -i 27 -a 1 -x {3.0 0.0 12 ------- null}
- -t 0.361568 -s 2 -d 1 -p ack -e 40 -c 1 -i 27 -a 1 -x {3.0 0.0 12 ------- null}
h -t 0.361568 -s 2 -d 1 -p ack -e 40 -c 1 -i 27 -a 1 -x {3.0 0.0 -1 ------- null}
r -t 0.363888 -s 2 -d 1 -p ack -e 40 -c 1 -i 25 -a 1 -x {3.0 0.0 11 ------- null}
+ -t 0.363888 -s 1 -d 0 -p ack -e 40 -c 1 -i 25 -a 1 -x {3.0 0.0 11 ------- null}
- -t 0.363888 -s 1 -d 0 -p ack -e 40 -c 1 -i 25 -a 1 -x {3.0 0.0 11 ------- null}
h -t 0.363888 -s 1 -d 0 -p ack -e 40 -c 1 -i 25 -a 1 -x {3.0 0.0 -1 ------- null}
r -t 0.36592 -s 1 -d 0 -p ack -e 40 -c 1 -i 24 -a 1 -x {3.0 0.0 10 ------- null}
+ -t 0.36592 -s 0 -d 1 -p tcp -e 1000 -c 1 -i 30 -a 1 -x {0.0 3.0 16 ------- null}
- -t 0.36592 -s 0 -d 1 -p tcp -e 1000 -c 1 -i 30 -a 1 -x {0.0 3.0 16 ------- null}
h -t 0.36592 -s 0 -d 1 -p tcp -e 1000 -c 1 -i 30 -a 1 -x {0.0 3.0 -1 ------- null}
r -t 0.36872 -s 0 -d 1 -p tcp -e 1000 -c 1 -i 28 -a 1 -x {0.0 3.0 15 ------- null}
+ -t 0.36872 -s 1 -d 2 -p tcp -e 1000 -c 1 -i 28 -a 1 -x {0.0 3.0 15 ------- null}
- -t 0.36872 -s 1 -d 2 -p tcp -e 1000 -c 1 -i 28 -a 1 -x {0.0 3.0 15 ------- null}
h -t 0.36872 -s 1 -d 2 -p tcp -e 1000 -c 1 -i 28 -a 1 -x {0.0 3.0 -1 ------- null}
r -t 0.369568 -s 3 -d 2 -p ack -e 40 -c 1 -i 29 -a 1 -x {3.0 0.0 13 ------- null}
+ -t 0.369568 -s 2 -d 1 -p ack -e 40 -c 1 -i 29 -a 1 -x {3.0 0.0 13 ------- null}
- -t 0.369568 -s 2 -d 1 -p ack -e 40 -c 1 -i 29 -a 1 -x {3.0 0.0 13 ------- null}
h -t 0.369568 -s 2 -d 1 -p ack -e 40 -c 1 -i 29 -a 1 -x {3.0 0.0 -1 ------- null}
r -t 0.371888 -s 2 -d 1 -p ack -e 40 -c 1 -i 27 -a 1 -x {3.0 0.0 12 ------- null}
+ -t 0.371888 -s 1 -d 0 -p ack -e 40 -c 1 -i 27 -a 1 -x {3.0 0.0 12 ------- null}
- -t 0.371888 -s 1 -d 0 -p ack -e 40 -c 1 -i 27 -a 1 -x {3.0 0.0 12 ------- null}
h -t 0.371888 -s 1 -d 0 -p ack -e 40 -c 1 -i 27 -a 1 -x {3.0 0.0 -1 ------- null}
r -t 0.37392 -s 1 -d 0 -p ack -e 40 -c 1 -i 25 -a 1 -x {3.0 0.0 11 ------- null}
+ -t 0.37392 -s 0 -d 1 -p tcp -e 1000 -c 1 -i 31 -a 1 -x {0.0 3.0 17 ------- null}
- -t 0.37392 -s 0 -d 1 -p tcp -e 1000 -c 1 -i 31 -a 1 -x {0.0 3.0 17 ------- null}
h -t 0.37392 -s 0 -d 1 -p tcp -e 1000 -c 1 -i 31 -a 1 -x {0.0 3.0 -1 ------- null}
r -t 0.37672 -s 0 -d 1 -p tcp -e 1000 -c 1 -i 30 -a 1 -x {0.0 3.0 16 ------- null}
+ -t 0.37672 -s 1 -d 2 -p tcp -e 1000 -c 1 -i 30 -a 1 -x {0.0 3.0 16 ------- null}
- -t 0.37672 -s 1 -d 2 -p tcp -e 1000 -c 1 -i 30 -a 1 -x {0.0 3.0 16 ------- null}
h -t 0.37672 -s 1 -d 2 -p tcp -e 1000 -c 1 -i 30 -a 1 -x {0.0 3.0 -1 ------- null}
r -t 0.37872 -s 1 -d 2 -p tcp -e 1000 -c 1 -i 26 -a 1 -x {0.0 3.0 14 ------- null}
+ -t 0.37872 -s 2 -d 3 -p tcp -e 1000 -c 1 -i 26 -a 1 -x {0.0 3.0 14 ------- null}
- -t 0.37872 -s 2 -d 3 -p tcp -e 1000 -c 1 -i 26 -a 1 -x {0.0 3.0 14 ------- null}
h -t 0.37872 -s 2 -d 3 -p tcp -e 1000 -c 1 -i 26 -a 1 -x {0.0 3.0 -1 ------- null}
r -t 0.379888 -s 2 -d 1 -p ack -e 40 -c 1 -i 29 -a 1 -x {3.0 0.0 13 ------- null}