+ 0 0 1 tcp 1000 ------- 1 0.0 3.0 0 0
- 0 0 1 tcp 1000 ------- 1 0.0 3.0 0 0
r 0.0108 0 1 tcp 1000 ------- 1 0.0 3.0 0 0
+ 0.0108 1 2 tcp 1000 ------- 1 0.0 3.0 0 0
- 0.0108 1 2 tcp 1000 ------- 1 0.0 3.0 0 0
r 0.0288 1 2 tcp 1000 ------- 1 0.0 3.0 0 0
+ 0.0288 2 3 tcp 1000 ------- 1 0.0 3.0 0 0
- 0.0288 2 3 tcp 1000 ------- 1 0.0 3.0 0 0
r 0.0396 2 3 tcp 1000 ------- 1 0.0 3.0 0 0
+ 0.0396 3 2 ack 40 ------- 1 3.0 0.0 0 1
- 0.0396 3 2 ack 40 ------- 1 3.0 0.0 0 1
r 0.049632 3 2 ack 40 ------- 1 3.0 0.0 0 1
+ 0.049632 2 1 ack 40 ------- 1 3.0 0.0 0 1
- 0.049632 2 1 ack 40 ------- 1 3.0 0.0 0 1
r 0.059952 2 1 ack 40 ------- 1 3.0 0.0 0 1
+ 0.059952 1 0 ack 40 ------- 1 3.0 0.0 0 1
- 0.059952 1 0 ack 40 ------- 1 3.0 0.0 0 1
r 0.069984 1 0 ack 40 ------- 1 3.0 0.0 0 1
+ 0.069984 0 1 tcp 1000 ------- 1 0.0 3.0 1 2
- 0.069984 0 1 tcp 1000 ------- 1 0.0 3.0 1 2
r 0.080784 0 1 tcp 1000 ------- 1 0.0 3.0 1 2
+ 0.080784 1 2 tcp 1000 ------- 1 0.0 3.0 1 2
- 0.080784 1 2 tcp 1000 ------- 1 0.0 3.0 1 2
r 0.098784 1 2 tcp 1000 ------- 1 0.0 3.0 1 2
+ 0.098784 2 3 tcp 1000 ------- 1 0.0 3.0 1 2
- 0.098784 2 3 tcp 1000 ------- 1 0.0 3.0 1 2
r 0.109584 2 3 tcp 1000 ------- 1 0.0 3.0 1 2
+ 0.109584 3 2 ack 40 ------- 1 3.0 0.0 1 3
- 0.109584 3 2 ack 40 ------- 1 3.0 0.0 1 3
r 0.119616 3 2 ack 40 ------- 1 3.0 0.0 1 3
+ 0.119616 2 1 ack 40 ------- 1 3.0 0.0 1 3
- 0.119616 2 1 ack 40 ------- 1 3.0 0.0 1 3
r 0.129936 2 1 ack 40 ------- 1 3.0 0.0 1 3
+ 0.129936 1 0 ack 40 ------- 1 3.0 0.0 1 3
- 0.129936 1 0 ack 40 ------- 1 3.0 0.0 1 3
r 0.139968 1 0 ack 40 ------- 1 3.0 0.0 1 3
+ 0.139968 0 1 tcp 1000 ------- 1 0.0 3.0 2 4
- 0.139968 0 1 tcp 1000 ------- 1 0.0 3.0 2 4
+ 0.139968 0 1 tcp 1000 ------- 1 0.0 3.0 3 5
+ 0.139968 0 1 tcp 1000 ------- 1 0.0 3.0 4 6
- 0.140768 0 1 tcp 1000 ------- 1 0.0 3.0 3 5
- 0.141568 0 1 tcp 1000 ------- 1 0.0 3.0 4 6
r 0.150768 0 1 tcp 1000 ------- 1 0.0 3.0 2 4
+ 0.150768 1 2 tcp 1000 ------- 1 0.0 3.0 2 4
- 0.150768 1 2 tcp 1000 ------- 1 0.0 3.0 2 4
r 0.151568 0 1 tcp 1000 ------- 1 0.0 3.0 3 5
+ 0.151568 1 2 tcp 1000 ------- 1 0.0 3.0 3 5
r 0.152368 0 1 tcp 1000 ------- 1 0.0 3.0 4 6
+ 0.152368 1 2 tcp 1000 ------- 1 0.0 3.0 4 6
- 0.158768 1 2 tcp 1000 ------- 1 0.0 3.0 3 5
- 0.166768 1 2 tcp 1000 ------- 1 0.0 3.0 4 6
r 0.168768 1 2 tcp 1000 ------- 1 0.0 3.0 2 4
+ 0.168768 2 3 tcp 1000 ------- 1 0.0 3.0 2 4
- 0.168768 2 3 tcp 1000 ------- 1 0.0 3.0 2 4
r 0.176768 1 2 tcp 1000 ------- 1 0.0 3.0 3 5
+ 0.176768 2 3 tcp 1000 ------- 1 0.0 3.0 3 5
- 0.176768 2 3 tcp 1000 ------- 1 0.0 3.0 3 5
r 0.179568 2 3 tcp 1000 ------- 1 0.0 3.0 2 4
+ 0.179568 3 2 ack 40 ------- 1 3.0 0.0 2 7
- 0.179568 3 2 ack 40 ------- 1 3.0 0.0 2 7
r 0.184768 1 2 tcp 1000 ------- 1 0.0 3.0 4 6
+ 0.184768 2 3 tcp 1000 ------- 1 0.0 3.0 4 6
- 0.184768 2 3 tcp 1000 ------- 1 0.0 3.0 4 6
r 0.187568 2 3 tcp 1000 ------- 1 0.0 3.0 3 5
+ 0.187568 3 2 ack 40 ------- 1 3.0 0.0 3 8
- 0.187568 3 2 ack 40 ------- 1 3.0 0.0 3 8
r 0.1896 3 2 ack 40 ------- 1 3.0 0.0 2 7
+ 0.1896 2 1 ack 40 ------- 1 3.0 0.0 2 7
- 0.1896 2 1 ack 40 ------- 1 3.0 0.0 2 7
r 0.195568 2 3 tcp 1000 ------- 1 0.0 3.0 4 6
+ 0.195568 3 2 ack 40 ------- 1 3.0 0.0 4 9
- 0.195568 3 2 ack 40 ------- 1 3.0 0.0 4 9
r 0.1976 3 2 ack 40 ------- 1 3.0 0.0 3 8
+ 0.1976 2 1 ack 40 ------- 1 3.0 0.0 3 8
- 0.1976 2 1 ack 40 ------- 1 3.0 0.0 3 8
r 0.19992 2 1 ack 40 ------- 1 3.0 0.0 2 7
+ 0.19992 1 0 ack 40 ------- 1 3.0 0.0 2 7
- 0.19992 1 0 ack 40 ------- 1 3.0 0.0 2 7
r 0.2056 3 2 ack 40 ------- 1 3.0 0.0 4 9
+ 0.2056 2 1 ack 40 ------- 1 3.0 0.0 4 9
- 0.2056 2 1 ack 40 ------- 1 3.0 0.0 4 9
r 0.20792 2 1 ack 40 ------- 1 3.0 0.0 3 8
+ 0.20792 1 0 ack 40 ------- 1 3.0 0.0 3 8
- 0.20792 1 0 ack 40 ------- 1 3.0 0.0 3 8
r 0.209952 1 0 ack 40 ------- 1 3.0 0.0 2 7
+ 0.209952 0 1 tcp 1000 ------- 1 0.0 3.0 5 10
- 0.209952 0 1 tcp 1000 ------- 1 0.0 3.0 5 10
r 0.21592 2 1 ack 40 ------- 1 3.0 0.0 4 9
+ 0.21592 1 0 ack 40 ------- 1 3.0 0.0 4 9
- 0.21592 1 0 ack 40 ------- 1 3.0 0.0 4 9
r 0.217952 1 0 ack 40 ------- 1 3.0 0.0 3 8
+ 0.217952 0 1 tcp 1000 ------- 1 0.0 3.0 6 11
- 0.217952 0 1 tcp 1000 ------- 1 0.0 3.0 6 11
r 0.220752 0 1 tcp 1000 ------- 1 0.0 3.0 5 10
+ 0.220752 1 2 tcp 1000 ------- 1 0.0 3.0 5 10
- 0.220752 1 2 tcp 1000 ------- 1 0.0 3.0 5 10
r 0.225952 1 0 ack 40 ------- 1 3.0 0.0 4 9
+ 0.225952 0 1 tcp 1000 ------- 1 0.0 3.0 7 12
- 0.225952 0 1 tcp 1000 ------- 1 0.0 3.0 7 12
r 0.228752 0 1 tcp 1000 ------- 1 0.0 3.0 6 11
+ 0.228752 1 2 tcp 1000 ------- 1 0.0 3.0 6 11
- 0.228752 1 2 tcp 1000 ------- 1 0.0 3.0 6 11
r 0.236752 0 1 tcp 1000 ------- 1 0.0 3.0 7 12
+ 0.236752 1 2 tcp 1000 ------- 1 0.0 3.0 7 12
- 0.236752 1 2 tcp 1000 ------- 1 0.0 3.0 7 12
r 0.238752 1 2 tcp 1000 ------- 1 0.0 3.0 5 10
+ 0.238752 2 3 tcp 1000 ------- 1 0.0 3.0 5 10
- 0.238752 2 3 tcp 1000 ------- 1 0.0 3.0 5 10
r 0.246752 1 2 tcp 1000 ------- 1 0.0 3.0 6 11
+ 0.246752 2 3 tcp 1000 ------- 1 0.0 3.0 6 11
- 0.246752 2 3 tcp 1000 ------- 1 0.0 3.0 6 11
r 0.249552 2 3 tcp 1000 ------- 1 0.0 3.0 5 10
+ 0.249552 3 2 ack 40 ------- 1 3.0 0.0 5 13
- 0.249552 3 2 ack 40 ------- 1 3.0 0.0 5 13
r 0.254752 1 2 tcp 1000 ------- 1 0.0 3.0 7 12
+ 0.254752 2 3 tcp 1000 ------- 1 0.0 3.0 7 12
- 0.254752 2 3 tcp 1000 ------- 1 0.0 3.0 7 12
r 0.257552 2 3 tcp 1000 ------- 1 0.0 3.0 6 11
+ 0.257552 3 2 ack 40 ------- 1 3.0 0.0 6 14
- 0.257552 3 2 ack 40 ------- 1 3.0 0.0 6 14
r 0.259584 3 2 ack 40 ------- 1 3.0 0.0 5 13
+ 0.259584 2 1 ack 40 ------- 1 3.0 0.0 5 13
- 0.259584 2 1 ack 40 ------- 1 3.0 0.0 5 13
r 0.265552 2 3 tcp 1000 ------- 1 0.0 3.0 7 12
+ 0.265552 3 2 ack 40 ------- 1 3.0 0.0 7 15
- 0.265552 3 2 ack 40 ------- 1 3.0 0.0 7 15
r 0.267584 3 2 ack 40 ------- 1 3.0 0.0 6 14
+ 0.267584 2 1 ack 40 ------- 1 3.0 0.0 6 14
- 0.267584 2 1 ack 40 ------- 1 3.0 0.0 6 14
r 0.269904 2 1 ack 40 ------- 1 3.0 0.0 5 13
+ 0.269904 1 0 ack 40 ------- 1 3.0 0.0 5 13
- 0.269904 1 0 ack 40 ------- 1 3.0 0.0 5 13
r 0.275584 3 2 ack 40 ------- 1 3.0 0.0 7 15
+ 0.275584 2 1 ack 40 ------- 1 3.0 0.0 7 15
- 0.275584 2 1 ack 40 ------- 1 3.0 0.0 7 15
r 0.277904 2 1 ack 40 ------- 1 3.0 0.0 6 14
+ 0.277904 1 0 ack 40 ------- 1 3.0 0.0 6 14
- 0.277904 1 0 ack 40 ------- 1 3.0 0.0 6 14
r 0.279936 1 0 ack 40 ------- 1 3.0 0.0 5 13
+ 0.279936 0 1 tcp 1000 ------- 1 0.0 3.0 8 16
- 0.279936 0 1 tcp 1000 ------- 1 0.0 3.0 8 16
+ 0.279936 0 1 tcp 1000 ------- 1 0.0 3.0 9 17
- 0.280736 0 1 tcp 1000 ------- 1 0.0 3.0 9 17
r 0.285904 2 1 ack 40 ------- 1 3.0 0.0 7 15
+ 0.285904 1 0 ack 40 ------- 1 3.0 0.0 7 15
- 0.285904 1 0 ack 40 ------- 1 3.0 0.0 7 15
r 0.287936 1 0 ack 40 ------- 1 3.0 0.0 6 14
+ 0.287936 0 1 tcp 1000 ------- 1 0.0 3.0 10 18
- 0.287936 0 1 tcp 1000 ------- 1 0.0 3.0 10 18
+ 0.287936 0 1 tcp 1000 ------- 1 0.0 3.0 11 19
- 0.288736 0 1 tcp 1000 ------- 1 0.0 3.0 11 19
r 0.290736 0 1 tcp 1000 ------- 1 0.0 3.0 8 16
+ 0.290736 1 2 tcp 1000 ------- 1 0.0 3.0 8 16
- 0.290736 1 2 tcp 1000 ------- 1 0.0 3.0 8 16
r 0.291536 0 1 tcp 1000 ------- 1 0.0 3.0 9 17
+ 0.291536 1 2 tcp 1000 ------- 1 0.0 3.0 9 17
r 0.295936 1 0 ack 40 ------- 1 3.0 0.0 7 15
+ 0.295936 0 1 tcp 1000 ------- 1 0.0 3.0 12 20
- 0.295936 0 1 tcp 1000 ------- 1 0.0 3.0 12 20
+ 0.295936 0 1 tcp 1000 ------- 1 0.0 3.0 13 21
- 0.296736 0 1 tcp 1000 ------- 1 0.0 3.0 13 21
r 0.298736 0 1 tcp 1000 ------- 1 0.0 3.0 10 18
+ 0.298736 1 2 tcp 1000 ------- 1 0.0 3.0 10 18
- 0.298736 1 2 tcp 1000 ------- 1 0.0 3.0 9 17
r 0.299536 0 1 tcp 1000 ------- 1 0.0 3.0 11 19
+ 0.299536 1 2 tcp 1000 ------- 1 0.0 3.0 11 19
r 0.306736 0 1 tcp 1000 ------- 1 0.0 3.0 12 20
+ 0.306736 1 2 tcp 1000 ------- 1 0.0 3.0 12 20
- 0.306736 1 2 tcp 1000 ------- 1 0.0 3.0 10 18
r 0.307536 0 1 tcp 1000 ------- 1 0.0 3.0 13 21
+ 0.307536 1 2 tcp 1000 ------- 1 0.0 3.0 13 21
r 0.308736 1 2 tcp 1000 ------- 1 0.0 3.0 8 16
+ 0.308736 2 3 tcp 1000 ------- 1 0.0 3.0 8 16
- 0.308736 2 3 tcp 1000 ------- 1 0.0 3.0 8 16
- 0.314736 1 2 tcp 1000 ------- 1 0.0 3.0 11 19
r 0.316736 1 2 tcp 1000 ------- 1 0.0 3.0 9 17
+ 0.316736 2 3 tcp 1000 ------- 1 0.0 3.0 9 17
- 0.316736 2 3 tcp 1000 ------- 1 0.0 3.0 9 17
r 0.319536 2 3 tcp 1000 ------- 1 0.0 3.0 8 16
+ 0.319536 3 2 ack 40 ------- 1 3.0 0.0 8 22
- 0.319536 3 2 ack 40 ------- 1 3.0 0.0 8 22
- 0.322736 1 2 tcp 1000 ------- 1 0.0 3.0 12 20
r 0.324736 1 2 tcp 1000 ------- 1 0.0 3.0 10 18
+ 0.324736 2 3 tcp 1000 ------- 1 0.0 3.0 10 18
- 0.324736 2 3 tcp 1000 ------- 1 0.0 3.0 10 18
r 0.327536 2 3 tcp 1000 ------- 1 0.0 3.0 9 17
+ 0.327536 3 2 ack 40 ------- 1 3.0 0.0 9 23
- 0.327536 3 2 ack 40 ------- 1 3.0 0.0 9 23
r 0.329568 3 2 ack 40 ------- 1 3.0 0.0 8 22
+ 0.329568 2 1 ack 40 ------- 1 3.0 0.0 8 22
- 0.329568 2 1 ack 40 ------- 1 3.0 0.0 8 22
- 0.330736 1 2 tcp 1000 ------- 1 0.0 3.0 13 21
r 0.332736 1 2 tcp 1000 ------- 1 0.0 3.0 11 19
+ 0.332736 2 3 tcp 1000 ------- 1 0.0 3.0 11 19
- 0.332736 2 3 tcp 1000 ------- 1 0.0 3.0 11 19
r 0.335536 2 3 tcp 1000 ------- 1 0.0 3.0 10 18
+ 0.335536 3 2 ack 40 ------- 1 3.0 0.0 10 24
- 0.335536 3 2 ack 40 ------- 1 3.0 0.0 10 24
r 0.337568 3 2 ack 40 ------- 1 3.0 0.0 9 23
+ 0.337568 2 1 ack 40 ------- 1 3.0 0.0 9 23
- 0.337568 2 1 ack 40 ------- 1 3.0 0.0 9 23
r 0.339888 2 1 ack 40 ------- 1 3.0 0.0 8 22
+ 0.339888 1 0 ack 40 ------- 1 3.0 0.0 8 22
- 0.339888 1 0 ack 40 ------- 1 3.0 0.0 8 22
r 0.340736 1 2 tcp 1000 ------- 1 0.0 3.0 12 20
+ 0.340736 2 3 tcp 1000 ------- 1 0.0 3.0 12 20
- 0.340736 2 3 tcp 1000 ------- 1 0.0 3.0 12 20
r 0.343536 2 3 tcp 1000 ------- 1 0.0 3.0 11 19
+ 0.343536 3 2 ack 40 ------- 1 3.0 0.0 11 25
- 0.343536 3 2 ack 40 ------- 1 3.0 0.0 11 25
r 0.345568 3 2 ack 40 ------- 1 3.0 0.0 10 24
+ 0.345568 2 1 ack 40 ------- 1 3.0 0.0 10 24
- 0.345568 2 1 ack 40 ------- 1 3.0 0.0 10 24
r 0.347888 2 1 ack 40 ------- 1 3.0 0.0 9 23
+ 0.347888 1 0 ack 40 ------- 1 3.0 0.0 9 23
- 0.347888 1 0 ack 40 ------- 1 3.0 0.0 9 23
r 0.348736 1 2 tcp 1000 ------- 1 0.0 3.0 13 21
+ 0.348736 2 3 tcp 1000 ------- 1 0.0 3.0 13 21
- 0.348736 2 3 tcp 1000 ------- 1 0.0 3.0 13 21
r 0.34992 1 0 ack 40 ------- 1 3.0 0.0 8 22
+ 0.34992 0 1 tcp 1000 ------- 1 0.0 3.0 14 26
- 0.34992 0 1 tcp 1000 ------- 1 0.0 3.0 14 26
r 0.351536 2 3 tcp 1000 ------- 1 0.0 3.0 12 20
+ 0.351536 3 2 ack 40 ------- 1 3.0 0.0 12 27
- 0.351536 3 2 ack 40 ------- 1 3.0 0.0 12 27
r 0.353568 3 2 ack 40 ------- 1 3.0 0.0 11 25
+ 0.353568 2 1 ack 40 ------- 1 3.0 0.0 11 25
- 0.353568 2 1 ack 40 ------- 1 3.0 0.0 11 25
r 0.355888 2 1 ack 40 ------- 1 3.0 0.0 10 24
+ 0.355888 1 0 ack 40 ------- 1 3.0 0.0 10 24
- 0.355888 1 0 ack 40 ------- 1 3.0 0.0 10 24
r 0.35792 1 0 ack 40 ------- 1 3.0 0.0 9 23
+ 0.35792 0 1 tcp 1000 ------- 1 0.0 3.0 15 28
- 0.35792 0 1 tcp 1000 ------- 1 0.0 3.0 15 28
r 0.359536 2 3 tcp 1000 ------- 1 0.0 3.0 13 21
+ 0.359536 3 2 ack 40 ------- 1 3.0 0.0 13 29
- 0.359536 3 2 ack 40 ------- 1 3.0 0.0 13 29
r 0.36072 0 1 tcp 1000 ------- 1 0.0 3.0 14 26
+ 0.36072 1 2 tcp 1000 ------- 1 0.0 3.0 14 26
- 0.36072 1 2 tcp 1000 ------- 1 0.0 3.0 14 26
r 0.361568 3 2 ack 40 ------- 1 3.0 0.0 12 27
+ 0.361568 2 1 ack 40 ------- 1 3.0 0.0 12 27
- 0.361568 2 1 ack 40 ------- 1 3.0 0.0 12 27
r 0.363888 2 1 ack 40 ------- 1 3.0 0.0 11 25
+ 0.363888 1 0 ack 40 ------- 1 3.0 0.0 11 25
- 0.363888 1 0 ack 40 ------- 1 3.0 0.0 11 25
r 0.36592 1 0 ack 40 ------- 1 3.0 0.0 10 24
+ 0.36592 0 1 tcp 1000 ------- 1 0.0 3.0 16 30
- 0.36592 0 1 tcp 1000 ------- 1 0.0 3.0 16 30
r 0.36872 0 1 tcp 1000 ------- 1 0.0 3.0 15 28
+ 0.36872 1 2 tcp 1000 ------- 1 0.0 3.0 15 28
- 0.36872 1 2 tcp 1000 ------- 1 0.0 3.0 15 28
r 0.369568 3 2 ack 40 ------- 1 3.0 0.0 13 29
+ 0.369568 2 1 ack 40 ------- 1 3.0 0.0 13 29
- 0.369568 2 1 ack 40 ------- 1 3.0 0.0 13 29
r 0.371888 2 1 ack 40 ------- 1 3.0 0.0 12 27
+ 0.371888 1 0 ack 40 ------- 1 3.0 0.0 12 27
- 0.371888 1 0 ack 40 ------- 1 3.0 0.0 12 27
r 0.37392 1 0 ack 40 ------- 1 3.0 0.0 11 25
+ 0.37392 0 1 tcp 1000 ------- 1 0.0 3.0 17 31
- 0.37392 0 1 tcp 1000 ------- 1 0.0 3.0 17 31
r 0.37672 0 1 tcp 1000 ------- 1 0.0 3.0 16 30
+ 0.37672 1 2 tcp 1000 ------- 1 0.0 3.0 16 30
- 0.37672 1 2 tcp 1000 ------- 1 0.0 3.0 16 30
r 0.37872 1 2 tcp 1000 ------- 1 0.0 3.0 14 26
+ 0.37872 2 3 tcp 1000 ------- 1 0.0 3.0 14 26
- 0.37872 2 3 tcp 1000 ------- 1 0.0 3.0 14 26
r 0.379888 2 1 ack 40 ------- 1 3.0 0.0 13 29
+ 0.379888 1 0 ack 40 ------- 1 3.0 0.0 13 29
- 0.379888 1 0 ack 40 ------- 1 3.0 0.0 13 29
r 0.38192 1 0 ack 40 ------- 1 3.0 0.0 12 27
+ 0.38192 0 1 tcp 1000 ------- 1 0.0 3.0 18 32
- 0.38192 0 1 tcp 1000 ------- 1 0.0 3.0 18 32
r 0.38472 0 1 tcp 1000 ------- 1 0.0 3.0 17 31
+ 0.38472 1 2 tcp 1000 ------- 1 0.0 3.0 17 31
- 0.38472 1 2 tcp 1000 ------- 1 0.0 3.0 17 31
r 0.38672 1 2 tcp 1000 ------- 1 0.0 3.0 15 28
+ 0.38672 2 3 tcp 1000 ------- 1 0.0 3.0 15 28
- 0.38672 2 3 tcp 1000 ------- 1 0.0 3.0 15 28
r 0.38952 2 3 tcp 1000 ------- 1 0.0 3.0 14 26
+ 0.38952 3 2 ack 40 ------- 1 3.0 0.0 14 33
- 0.38952 3 2 ack 40 ------- 1 3.0 0.0 14 33
r 0.38992 1 0 ack 40 ------- 1 3.0 0.0 13 29
+ 0.38992 0 1 tcp 1000 ------- 1 0.0 3.0 19 34
- 0.38992 0 1 tcp 1000 ------- 1 0.0 3.0 19 34
r 0.39272 0 1 tcp 1000 ------- 1 0.0 3.0 18 32
+ 0.39272 1 2 tcp 1000 ------- 1 0.0 3.0 18 32
- 0.39272 1 2 tcp 1000 ------- 1 0.0 3.0 18 32
r 0.39472 1 2 tcp 1000 ------- 1 0.0 3.0 16 30
+ 0.39472 2 3 tcp 1000 ------- 1 0.0 3.0 16 30
- 0.39472 2 3 tcp 1000 ------- 1 0.0 3.0 16 30
r 0.39752 2 3 tcp 1000 ------- 1 0.0 3.0 15 28
+ 0.39752 3 2 ack 40 ------- 1 3.0 0.0 15 35
- 0.39752 3 2 ack 40 ------- 1 3.0 0.0 15 35
r 0.399552 3 2 ack 40 ------- 1 3.0 0.0 14 33
+ 0.399552 2 1 ack 40 ------- 1 3.0 0.0 14 33
- 0.399552 2 1 ack 40 ------- 1 3.0 0.0 14 33
r 0.40072 0 1 tcp 1000 ------- 1 0.0 3.0 19 34
+ 0.40072 1 2 tcp 1000 ------- 1 0.0 3.0 19 34
- 0.40072 1 2 tcp 1000 ------- 1 0.0 3.0 19 34
r 0.40272 1 2 tcp 1000 ------- 1 0.0 3.0 17 31
+ 0.40272 2 3 tcp 1000 ------- 1 0.0 3.0 17 31
- 0.40272 2 3 tcp 1000 ------- 1 0.0 3.0 17 31
r 0.40552 2 3 tcp 1000 ------- 1 0.0 3.0 16 30
+ 0.40552 3 2 ack 40 ------- 1 3.0 0.0 16 36
- 0.40552 3 2 ack 40 ------- 1 3.0 0.0 16 36
r 0.407552 3 2 ack 40 ------- 1 3.0 0.0 15 35
+ 0.407552 2 1 ack 40 ------- 1 3.0 0.0 15 35
- 0.407552 2 1 ack 40 ------- 1 3.0 0.0 15 35
r 0.409872 2 1 ack 40 ------- 1 3.0 0.0 14 33
+ 0.409872 1 0 ack 40 ------- 1 3.0 0.0 14 33
- 0.409872 1 0 ack 40 ------- 1 3.0 0.0 14 33
r 0.41072 1 2 tcp 1000 ------- 1 0.0 3.0 18 32
+ 0.41072 2 3 tcp 1000 ------- 1 0.0 3.0 18 32
- 0.41072 2 3 tcp 1000 ------- 1 0.0 3.0 18 32
r 0.41352 2 3 tcp 1000 ------- 1 0.0 3.0 17 31
+ 0.41352 3 2 ack 40 ------- 1 3.0 0.0 17 37
- 0.41352 3 2 ack 40 ------- 1 3.0 0.0 17 37
r 0.415552 3 2 ack 40 ------- 1 3.0 0.0 16 36
+ 0.415552 2 1 ack 40 ------- 1 3.0 0.0 16 36
- 0.415552 2 1 ack 40 ------- 1 3.0 0.0 16 36
r 0.417872 2 1 ack 40 ------- 1 3.0 0.0 15 35
+ 0.417872 1 0 ack 40 ------- 1 3.0 0.0 15 35
- 0.417872 1 0 ack 40 ------- 1 3.0 0.0 15 35
r 0.41872 1 2 tcp 1000 ------- 1 0.0 3.0 19 34
+ 0.41872 2 3 tcp 1000 ------- 1 0.0 3.0 19 34
- 0.41872 2 3 tcp 1000 ------- 1 0.0 3.0 19 34
r 0.419904 1 0 ack 40 ------- 1 3.0 0.0 14 33
+ 0.419904 0 1 tcp 1000 ------- 1 0.0 3.0 20 38
- 0.419904 0 1 tcp 1000 ------- 1 0.0 3.0 20 38
+ 0.419904 0 1 tcp 1000 ------- 1 0.0 3.0 21 39
- 0.420704 0 1 tcp 1000 ------- 1 0.0 3.0 21 39
r 0.42152 2 3 tcp 1000 ------- 1 0.0 3.0 18 32
+ 0.42152 3 2 ack 40 ------- 1 3.0 0.0 18 40
- 0.42152 3 2 ack 40 ------- 1 3.0 0.0 18 40
r 0.423552 3 2 ack 40 ------- 1 3.0 0.0 17 37
+ 0.423552 2 1 ack 40 ------- 1 3.0 0.0 17 37
- 0.423552 2 1 ack 40 ------- 1 3.0 0.0 17 37
r 0.425872 2 1 ack 40 ------- 1 3.0 0.0 16 36
+ 0.425872 1 0 ack 40 ------- 1 3.0 0.0 16 36
- 0.425872 1 0 ack 40 ------- 1 3.0 0.0 16 36
r 0.427904 1 0 ack 40 ------- 1 3.0 0.0 15 35
+ 0.427904 0 1 tcp 1000 ------- 1 0.0 3.0 22 41
- 0.427904 0 1 tcp 1000 ------- 1 0.0 3.0 22 41
+ 0.427904 0 1 tcp 1000 ------- 1 0.0 3.0 23 42
- 0.428704 0 1 tcp 1000 ------- 1 0.0 3.0 23 42
r 0.42952 2 3 tcp 1000 ------- 1 0.0 3.0 19 34
+ 0.42952 3 2 ack 40 ------- 1 3.0 0.0 19 43
- 0.42952 3 2 ack 40 ------- 1 3.0 0.0 19 43
r 0.430704 0 1 tcp 1000 ------- 1 0.0 3.0 20 38
+ 0.430704 1 2 tcp 1000 ------- 1 0.0 3.0 20 38
- 0.430704 1 2 tcp 1000 ------- 1 0.0 3.0 20 38
r 0.431504 0 1 tcp 1000 ------- 1 0.0 3.0 21 39
+ 0.431504 1 2 tcp 1000 ------- 1 0.0 3.0 21 39
r 0.431552 3 2 ack 40 ------- 1 3.0 0.0 18 40
+ 0.431552 2 1 ack 40 ------- 1 3.0 0.0 18 40
- 0.431552 2 1 ack 40 ------- 1 3.0 0.0 18 40
r 0.433872 2 1 ack 40 ------- 1 3.0 0.0 17 37
+ 0.433872 1 0 ack 40 ------- 1 3.0 0.0 17 37
- 0.433872 1 0 ack 40 ------- 1 3.0 0.0 17 37
r 0.435904 1 0 ack 40 ------- 1 3.0 0.0 16 36
+ 0.435904 0 1 tcp 1000 ------- 1 0.0 3.0 24 44
- 0.435904 0 1 tcp 1000 ------- 1 0.0 3.0 24 44
+ 0.435904 0 1 tcp 1000 ------- 1 0.0 3.0 25 45
- 0.436704 0 1 tcp 1000 ------- 1 0.0 3.0 25 45
r 0.438704 0 1 tcp 1000 ------- 1 0.0 3.0 22 41
+ 0.438704 1 2 tcp 1000 ------- 1 0.0 3.0 22 41
- 0.438704 1 2 tcp 1000 ------- 1 0.0 3.0 21 39
r 0.439504 0 1 tcp 1000 ------- 1 0.0 3.0 23 42
+ 0.439504 1 2 tcp 1000 ------- 1 0.0 3.0 23 42
r 0.439552 3 2 ack 40 ------- 1 3.0 0.0 19 43
+ 0.439552 2 1 ack 40 ------- 1 3.0 0.0 19 43
- 0.439552 2 1 ack 40 ------- 1 3.0 0.0 19 43
r 0.441872 2 1 ack 40 ------- 1 3.0 0.0 18 40
+ 0.441872 1 0 ack 40 ------- 1 3.0 0.0 18 40
- 0.441872 1 0 ack 40 ------- 1 3.0 0.0 18 40
r 0.443904 1 0 ack 40 ------- 1 3.0 0.0 17 37
+ 0.443904 0 1 tcp 1000 ------- 1 0.0 3.0 26 46
- 0.443904 0 1 tcp 1000 ------- 1 0.0 3.0 26 46
+ 0.443904 0 1 tcp 1000 ------- 1 0.0 3.0 27 47
- 0.444704 0 1 tcp 1000 ------- 1 0.0 3.0 27 47
r 0.446704 0 1 tcp 1000 ------- 1 0.0 3.0 24 44
+ 0.446704 1 2 tcp 1000 ------- 1 0.0 3.0 24 44
- 0.446704 1 2 tcp 1000 ------- 1 0.0 3.0 22 41
r 0.447504 0 1 tcp 1000 ------- 1 0.0 3.0 25 45
+ 0.447504 1 2 tcp 1000 ------- 1 0.0 3.0 25 45
r 0.448704 1 2 tcp 1000 ------- 1 0.0 3.0 20 38
+ 0.448704 2 3 tcp 1000 ------- 1 0.0 3.0 20 38
- 0.448704 2 3 tcp 1000 ------- 1 0.0 3.0 20 38
r 0.449872 2 1 ack 40 ------- 1 3.0 0.0 19 43
+ 0.449872 1 0 ack 40 ------- 1 3.0 0.0 19 43
- 0.449872 1 0 ack 40 ------- 1 3.0 0.0 19 43
r 0.451904 1 0 ack 40 ------- 1 3.0 0.0 18 40
+ 0.451904 0 1 tcp 1000 ------- 1 0.0 3.0 28 48
- 0.451904 0 1 tcp 1000 ------- 1 0.0 3.0 28 48
+ 0.451904 0 1 tcp 1000 ------- 1 0.0 3.0 29 49
- 0.452704 0 1 tcp 1000 ------- 1 0.0 3.0 29 49
r 0.454704 0 1 tcp 1000 ------- 1 0.0 3.0 26 46
+ 0.454704 1 2 tcp 1000 ------- 1 0.0 3.0 26 46
- 0.454704 1 2 tcp 1000 ------- 1 0.0 3.0 23 42
r 0.455504 0 1 tcp 1000 ------- 1 0.0 3.0 27 47
+ 0.455504 1 2 tcp 1000 ------- 1 0.0 3.0 27 47
r 0.456704 1 2 tcp 1000 ------- 1 0.0 3.0 21 39
+ 0.456704 2 3 tcp 1000 ------- 1 0.0 3.0 21 39
- 0.456704 2 3 tcp 1000 ------- 1 0.0 3.0 21 39
r 0.459504 2 3 tcp 1000 ------- 1 0.0 3.0 20 38
+ 0.459504 3 2 ack 40 ------- 1 3.0 0.0 20 50
- 0.459504 3 2 ack 40 ------- 1 3.0 0.0 20 50
r 0.459904 1 0 ack 40 ------- 1 3.0 0.0 19 43
+ 0.459904 0 1 tcp 1000 ------- 1 0.0 3.0 30 51
- 0.459904 0 1 tcp 1000 ------- 1 0.0 3.0 30 51
+ 0.459904 0 1 tcp 1000 ------- 1 0.0 3.0 31 52
- 0.460704 0 1 tcp 1000 ------- 1 0.0 3.0 31 52
r 0.462704 0 1 tcp 1000 ------- 1 0.0 3.0 28 48
+ 0.462704 1 2 tcp 1000 ------- 1 0.0 3.0 28 48
- 0.462704 1 2 tcp 1000 ------- 1 0.0 3.0 24 44
r 0.463504 0 1 tcp 1000 ------- 1 0.0 3.0 29 49
+ 0.463504 1 2 tcp 1000 ------- 1 0.0 3.0 29 49
r 0.464704 1 2 tcp 1000 ------- 1 0.0 3.0 22 41
+ 0.464704 2 3 tcp 1000 ------- 1 0.0 3.0 22 41
- 0.464704 2 3 tcp 1000 ------- 1 0.0 3.0 22 41
r 0.467504 2 3 tcp 1000 ------- 1 0.0 3.0 21 39
+ 0.467504 3 2 ack 40 ------- 1 3.0 0.0 21 53
- 0.467504 3 2 ack 40 ------- 1 3.0 0.0 21 53
r 0.469536 3 2 ack 40 ------- 1 3.0 0.0 20 50
+ 0.469536 2 1 ack 40 ------- 1 3.0 0.0 20 50
- 0.469536 2 1 ack 40 ------- 1 3.0 0.0 20 50
r 0.470704 0 1 tcp 1000 ------- 1 0.0 3.0 30 51
+ 0.470704 1 2 tcp 1000 ------- 1 0.0 3.0 30 51
- 0.470704 1 2 tcp 1000 ------- 1 0.0 3.0 25 45
r 0.471504 0 1 tcp 1000 ------- 1 0.0 3.0 31 52
+ 0.471504 1 2 tcp 1000 ------- 1 0.0 3.0 31 52
r 0.472704 1 2 tcp 1000 ------- 1 0.0 3.0 23 42
+ 0.472704 2 3 tcp 1000 ------- 1 0.0 3.0 23 42
- 0.472704 2 3 tcp 1000 ------- 1 0.0 3.0 23 42
r 0.475504 2 3 tcp 1000 ------- 1 0.0 3.0 22 41
+ 0.475504 3 2 ack 40 ------- 1 3.0 0.0 22 54
- 0.475504 3 2 ack 40 ------- 1 3.0 0.0 22 54
r 0.477536 3 2 ack 40 ------- 1 3.0 0.0 21 53
+ 0.477536 2 1 ack 40 ------- 1 3.0 0.0 21 53
- 0.477536 2 1 ack 40 ------- 1 3.0 0.0 21 53
- 0.478704 1 2 tcp 1000 ------- 1 0.0 3.0 26 46
r 0.479856 2 1 ack 40 ------- 1 3.0 0.0 20 50
+ 0.479856 1 0 ack 40 ------- 1 3.0 0.0 20 50
- 0.479856 1 0 ack 40 ------- 1 3.0 0.0 20 50
r 0.480704 1 2 tcp 1000 ------- 1 0.0 3.0 24 44
+ 0.480704 2 3 tcp 1000 ------- 1 0.0 3.0 24 44
- 0.480704 2 3 tcp 1000 ------- 1 0.0 3.0 24 44
r 0.483504 2 3 tcp 1000 ------- 1 0.0 3.0 23 42
+ 0.483504 3 2 ack 40 ------- 1 3.0 0.0 23 55
- 0.483504 3 2 ack 40 ------- 1 3.0 0.0 23 55
r 0.485536 3 2 ack 40 ------- 1 3.0 0.0 22 54
+ 0.485536 2 1 ack 40 ------- 1 3.0 0.0 22 54
- 0.485536 2 1 ack 40 ------- 1 3.0 0.0 22 54
- 0.486704 1 2 tcp 1000 ------- 1 0.0 3.0 27 47
r 0.487856 2 1 ack 40 ------- 1 3.0 0.0 21 53
+ 0.487856 1 0 ack 40 ------- 1 3.0 0.0 21 53
- 0.487856 1 0 ack 40 ------- 1 3.0 0.0 21 53
r 0.488704 1 2 tcp 1000 ------- 1 0.0 3.0 25 45
+ 0.488704 2 3 tcp 1000 ------- 1 0.0 3.0 25 45
- 0.488704 2 3 tcp 1000 ------- 1 0.0 3.0 25 45
r 0.489888 1 0 ack 40 ------- 1 3.0 0.0 20 50
+ 0.489888 0 1 tcp 1000 ------- 1 0.0 3.0 32 56
- 0.489888 0 1 tcp 1000 ------- 1 0.0 3.0 32 56
r 0.491504 2 3 tcp 1000 ------- 1 0.0 3.0 24 44
+ 0.491504 3 2 ack 40 ------- 1 3.0 0.0 24 57
- 0.491504 3 2 ack 40 ------- 1 3.0 0.0 24 57
r 0.493536 3 2 ack 40 ------- 1 3.0 0.0 23 55
+ 0.493536 2 1 ack 40 ------- 1 3.0 0.0 23 55
- 0.493536 2 1 ack 40 ------- 1 3.0 0.0 23 55
- 0.494704 1 2 tcp 1000 ------- 1 0.0 3.0 28 48
r 0.495856 2 1 ack 40 ------- 1 3.0 0.0 22 54
+ 0.495856 1 0 ack 40 ------- 1 3.0 0.0 22 54
- 0.495856 1 0 ack 40 ------- 1 3.0 0.0 22 54
r 0.496704 1 2 tcp 1000 ------- 1 0.0 3.0 26 46
+ 0.496704 2 3 tcp 1000 ------- 1 0.0 3.0 26 46
- 0.496704 2 3 tcp 1000 ------- 1 0.0 3.0 26 46
r 0.497888 1 0 ack 40 ------- 1 3.0 0.0 21 53
+ 0.497888 0 1 tcp 1000 ------- 1 0.0 3.0 33 58
- 0.497888 0 1 tcp 1000 ------- 1 0.0 3.0 33 58
r 0.499504 2 3 tcp 1000 ------- 1 0.0 3.0 25 45
+ 0.499504 3 2 ack 40 ------- 1 3.0 0.0 25 59
- 0.499504 3 2 ack 40 ------- 1 3.0 0.0 25 59
r 0.500688 0 1 tcp 1000 ------- 1 0.0 3.0 32 56
+ 0.500688 1 2 tcp 1000 ------- 1 0.0 3.0 32 56
r 0.501536 3 2 ack 40 ------- 1 3.0 0.0 24 57
+ 0.501536 2 1 ack 40 ------- 1 3.0 0.0 24 57
- 0.501536 2 1 ack 40 ------- 1 3.0 0.0 24 57
- 0.502704 1 2 tcp 1000 ------- 1 0.0 3.0 29 49
r 0.503856 2 1 ack 40 ------- 1 3.0 0.0 23 55
+ 0.503856 1 0 ack 40 ------- 1 3.0 0.0 23 55
- 0.503856 1 0 ack 40 ------- 1 3.0 0.0 23 55
r 0.504704 1 2 tcp 1000 ------- 1 0.0 3.0 27 47
+ 0.504704 2 3 tcp 1000 ------- 1 0.0 3.0 27 47
- 0.504704 2 3 tcp 1000 ------- 1 0.0 3.0 27 47
r 0.505888 1 0 ack 40 ------- 1 3.0 0.0 22 54
+ 0.505888 0 1 tcp 1000 ------- 1 0.0 3.0 34 60
- 0.505888 0 1 tcp 1000 ------- 1 0.0 3.0 34 60
r 0.507504 2 3 tcp 1000 ------- 1 0.0 3.0 26 46
+ 0.507504 3 2 ack 40 ------- 1 3.0 0.0 26 61
- 0.507504 3 2 ack 40 ------- 1 3.0 0.0 26 61
r 0.508688 0 1 tcp 1000 ------- 1 0.0 3.0 33 58
+ 0.508688 1 2 tcp 1000 ------- 1 0.0 3.0 33 58
r 0.509536 3 2 ack 40 ------- 1 3.0 0.0 25 59
+ 0.509536 2 1 ack 40 ------- 1 3.0 0.0 25 59
- 0.509536 2 1 ack 40 ------- 1 3.0 0.0 25 59
- 0.510704 1 2 tcp 1000 ------- 1 0.0 3.0 30 51
r 0.511856 2 1 ack 40 ------- 1 3.0 0.0 24 57
+ 0.511856 1 0 ack 40 ------- 1 3.0 0.0 24 57
- 0.511856 1 0 ack 40 ------- 1 3.0 0.0 24 57
r 0.512704 1 2 tcp 1000 ------- 1 0.0 3.0 28 48
+ 0.512704 2 3 tcp 1000 ------- 1 0.0 3.0 28 48
- 0.512704 2 3 tcp 1000 ------- 1 0.0 3.0 28 48
r 0.513888 1 0 ack 40 ------- 1 3.0 0.0 23 55
+ 0.513888 0 1 tcp 1000 ------- 1 0.0 3.0 35 62
- 0.513888 0 1 tcp 1000 ------- 1 0.0 3.0 35 62
r 0.515504 2 3 tcp 1000 ------- 1 0.0 3.0 27 47
+ 0.515504 3 2 ack 40 ------- 1 3.0 0.0 27 63
- 0.515504 3 2 ack 40 ------- 1 3.0 0.0 27 63
r 0.516688 0 1 tcp 1000 ------- 1 0.0 3.0 34 60
+ 0.516688 1 2 tcp 1000 ------- 1 0.0 3.0 34 60
r 0.517536 3 2 ack 40 ------- 1 3.0 0.0 26 61
+ 0.517536 2 1 ack 40 ------- 1 3.0 0.0 26 61
- 0.517536 2 1 ack 40 ------- 1 3.0 0.0 26 61
- 0.518704 1 2 tcp 1000 ------- 1 0.0 3.0 31 52
r 0.519856 2 1 ack 40 ------- 1 3.0 0.0 25 59
+ 0.519856 1 0 ack 40 ------- 1 3.0 0.0 25 59
- 0.519856 1 0 ack 40 ------- 1 3.0 0.0 25 59
r 0.520704 1 2 tcp 1000 ------- 1 0.0 3.0 29 49
+ 0.520704 2 3 tcp 1000 ------- 1 0.0 3.0 29 49
- 0.520704 2 3 tcp 1000 ------- 1 0.0 3.0 29 49
r 0.521888 1 0 ack 40 ------- 1 3.0 0.0 24 57
+ 0.521888 0 1 tcp 1000 ------- 1 0.0 3.0 36 64
- 0.521888 0 1 tcp 1000 ------- 1 0.0 3.0 36 64
r 0.523504 2 3 tcp 1000 ------- 1 0.0 3.0 28 48
+ 0.523504 3 2 ack 40 ------- 1 3.0 0.0 28 65
- 0.523504 3 2 ack 40 ------- 1 3.0 0.0 28 65
r 0.524688 0 1 tcp 1000 ------- 1 0.0 3.0 35 62
+ 0.524688 1 2 tcp 1000 ------- 1 0.0 3.0 35 62
r 0.525536 3 2 ack 40 ------- 1 3.0 0.0 27 63
+ 0.525536 2 1 ack 40 ------- 1 3.0 0.0 27 63
- 0.525536 2 1 ack 40 ------- 1 3.0 0.0 27 63
- 0.526704 1 2 tcp 1000 ------- 1 0.0 3.0 32 56
r 0.527856 2 1 ack 40 ------- 1 3.0 0.0 26 61
+ 0.527856 1 0 ack 40 ------- 1 3.0 0.0 26 61
- 0.527856 1 0 ack 40 ------- 1 3.0 0.0 26 61
r 0.528704 1 2 tcp 1000 ------- 1 0.0 3.0 30 51
+ 0.528704 2 3 tcp 1000 ------- 1 0.0 3.0 30 51
- 0.528704 2 3 tcp 1000 ------- 1 0.0 3.0 30 51
r 0.529888 1 0 ack 40 ------- 1 3.0 0.0 25 59
+ 0.529888 0 1 tcp 1000 ------- 1 0.0 3.0 37 66
- 0.529888 0 1 tcp 1000 ------- 1 0.0 3.0 37 66
r 0.531504 2 3 tcp 1000 ------- 1 0.0 3.0 29 49
+ 0.531504 3 2 ack 40 ------- 1 3.0 0.0 29 67
- 0.531504 3 2 ack 40 ------- 1 3.0 0.0 29 67
r 0.532688 0 1 tcp 1000 ------- 1 0.0 3.0 36 64
+ 0.532688 1 2 tcp 1000 ------- 1 0.0 3.0 36 64
r 0.533536 3 2 ack 40 ------- 1 3.0 0.0 28 65
+ 0.533536 2 1 ack 40 ------- 1 3.0 0.0 28 65
- 0.533536 2 1 ack 40 ------- 1 3.0 0.0 28 65
- 0.534704 1 2 tcp 1000 ------- 1 0.0 3.0 33 58
r 0.535856 2 1 ack 40 ------- 1 3.0 0.0 27 63
+ 0.535856 1 0 ack 40 ------- 1 3.0 0.0 27 63
- 0.535856 1 0 ack 40 ------- 1 3.0 0.0 27 63
r 0.536704 1 2 tcp 1000 ------- 1 0.0 3.0 31 52
+ 0.536704 2 3 tcp 1000 ------- 1 0.0 3.0 31 52
- 0.536704 2 3 tcp 1000 ------- 1 0.0 3.0 31 52
r 0.537888 1 0 ack 40 ------- 1 3.0 0.0 26 61
+ 0.537888 0 1 tcp 1000 ------- 1 0.0 3.0 38 68
- 0.537888 0 1 tcp 1000 ------- 1 0.0 3.0 38 68
r 0.539504 2 3 tcp 1000 ------- 1 0.0 3.0 30 51
+ 0.539504 3 2 ack 40 ------- 1 3.0 0.0 30 69
- 0.539504 3 2 ack 40 ------- 1 3.0 0.0 30 69
r 0.540688 0 1 tcp 1000 ------- 1 0.0 3.0 37 66
+ 0.540688 1 2 tcp 1000 ------- 1 0.0 3.0 37 66
r 0.541536 3 2 ack 40 ------- 1 3.0 0.0 29 67
+ 0.541536 2 1 ack 40 ------- 1 3.0 0.0 29 67
- 0.541536 2 1 ack 40 ------- 1 3.0 0.0 29 67
- 0.542704 1 2 tcp 1000 ------- 1 0.0 3.0 34 60
r 0.543856 2 1 ack 40 ------- 1 3.0 0.0 28 65
+ 0.543856 1 0 ack 40 ------- 1 3.0 0.0 28 65
- 0.543856 1 0 ack 40 ------- 1 3.0 0.0 28 65
r 0.544704 1 2 tcp 1000 ------- 1 0.0 3.0 32 56
+ 0.544704 2 3 tcp 1000 ------- 1 0.0 3.0 32 56
- 0.544704 2 3 tcp 1000 ------- 1 0.0 3.0 32 56
r 0.545888 1 0 ack 40 ------- 1 3.0 0.0 27 63
+ 0.545888 0 1 tcp 1000 ------- 1 0.0 3.0 39 70
- 0.545888 0 1 tcp 1000 ------- 1 0.0 3.0 39 70
r 0.547504 2 3 tcp 1000 ------- 1 0.0 3.0 31 52
+ 0.547504 3 2 ack 40 ------- 1 3.0 0.0 31 71
- 0.547504 3 2 ack 40 ------- 1 3.0 0.0 31 71
r 0.548688 0 1 tcp 1000 ------- 1 0.0 3.0 38 68
+ 0.548688 1 2 tcp 1000 ------- 1 0.0 3.0 38 68
r 0.549536 3 2 ack 40 ------- 1 3.0 0.0 30 69
+ 0.549536 2 1 ack 40 ------- 1 3.0 0.0 30 69
- 0.549536 2 1 ack 40 ------- 1 3.0 0.0 30 69
- 0.550704 1 2 tcp 1000 ------- 1 0.0 3.0 35 62
r 0.551856 2 1 ack 40 ------- 1 3.0 0.0 29 67
+ 0.551856 1 0 ack 40 ------- 1 3.0 0.0 29 67
- 0.551856 1 0 ack 40 ------- 1 3.0 0.0 29 67
r 0.552704 1 2 tcp 1000 ------- 1 0.0 3.0 33 58
+ 0.552704 2 3 tcp 1000 ------- 1 0.0 3.0 33 58
- 0.552704 2 3 tcp 1000 ------- 1 0.0 3.0 33 58
r 0.553888 1 0 ack 40 ------- 1 3.0 0.0 28 65
+ 0.553888 0 1 tcp 1000 ------- 1 0.0 3.0 40 72
- 0.553888 0 1 tcp 1000 ------- 1 0.0 3.0 40 72
r 0.555504 2 3 tcp 1000 ------- 1 0.0 3.0 32 56
+ 0.555504 3 2 ack 40 ------- 1 3.0 0.0 32 73
- 0.555504 3 2 ack 40 ------- 1 3.0 0.0 32 73
r 0.556688 0 1 tcp 1000 ------- 1 0.0 3.0 39 70
+ 0.556688 1 2 tcp 1000 ------- 1 0.0 3.0 39 70
r 0.557536 3 2 ack 40 ------- 1 3.0 0.0 31 71
+ 0.557536 2 1 ack 40 ------- 1 3.0 0.0 31 71
- 0.557536 2 1 ack 40 ------- 1 3.0 0.0 31 71
- 0.558704 1 2 tcp 1000 ------- 1 0.0 3.0 36 64
r 0.559856 2 1 ack 40 ------- 1 3.0 0.0 30 69
+ 0.559856 1 0 ack 40 ------- 1 3.0 0.0 30 69
- 0.559856 1 0 ack 40 ------- 1 3.0 0.0 30 69
r 0.560704 1 2 tcp 1000 ------- 1 0.0 3.0 34 60
+ 0.560704 2 3 tcp 1000 ------- 1 0.0 3.0 34 60
- 0.560704 2 3 tcp 1000 ------- 1 0.0 3.0 34 60
r 0.561888 1 0 ack 40 ------- 1 3.0 0.0 29 67
+ 0.561888 0 1 tcp 1000 ------- 1 0.0 3.0 41 74
- 0.561888 0 1 tcp 1000 ------- 1 0.0 3.0 41 74
r 0.563504 2 3 tcp 1000 ------- 1 0.0 3.0 33 58
+ 0.563504 3 2 ack 40 ------- 1 3.0 0.0 33 75
- 0.563504 3 2 ack 40 ------- 1 3.0 0.0 33 75
r 0.564688 0 1 tcp 1000 ------- 1 0.0 3.0 40 72
+ 0.564688 1 2 tcp 1000 ------- 1 0.0 3.0 40 72
r 0.565536 3 2 ack 40 ------- 1 3.0 0.0 32 73
+ 0.565536 2 1 ack 40 ------- 1 3.0 0.0 32 73
- 0.565536 2 1 ack 40 ------- 1 3.0 0.0 32 73
- 0.566704 1 2 tcp 1000 ------- 1 0.0 3.0 37 66
r 0.567856 2 1 ack 40 ------- 1 3.0 0.0 31 71
+ 0.567856 1 0 ack 40 ------- 1 3.0 0.0 31 71
- 0.567856 1 0 ack 40 ------- 1 3.0 0.0 31 71
r 0.568704 1 2 tcp 1000 ------- 1 0.0 3.0 35 62
+ 0.568704 2 3 tcp 1000 ------- 1 0.0 3.0 35 62
- 0.568704 2 3 tcp 1000 ------- 1 0.0 3.0 35 62
r 0.569888 1 0 ack 40 ------- 1 3.0 0.0 30 69
+ 0.569888 0 1 tcp 1000 ------- 1 0.0 3.0 42 76
- 0.569888 0 1 tcp 1000 ------- 1 0.0 3.0 42 76
r 0.571504 2 3 tcp 1000 ------- 1 0.0 3.0 34 60
+ 0.571504 3 2 ack 40 ------- 1 3.0 0.0 34 77
- 0.571504 3 2 ack 40 ------- 1 3.0 0.0 34 77